# vtk DataFile Version 2.0
track0
ASCII
DATASET POLYDATA
POINTS 41141 float
0.05 8.57988e-20 2.57396e-18
0.05 0.00217391 -1.05592e-17
0.05 0.00217391 -1.05592e-17
0.05 0.00217391 -1.05592e-17
0.05 0.00217391 -1.05592e-17
0.05 0.00217391 -1.05592e-17
0.05 0.00217391 -1.38778e-17
0.0493333 0.00217502 -6.66134e-18
0.0486667 0.00217718 -7.84095e-18
0.048 0.00218093 -8.89271e-18
0.0473334 0.00218784 -7.11294e-18
0.0466667 0.00219732 0
0.046 0.00220922 -4.16334e-19
0.0453333 0.00222058 -4.02454e-18
0.0446667 0.00223255 -4.8169e-18
0.0440001 0.00224755 -5.15108e-18
0.0433333 0.00226603 -5.55112e-18
0.0426667 0.00228835 -3.19189e-18
0.0419999 0.00230871 1.1792e-18
0.0413332 0.00232935 1.97023e-18
0.0406666 0.00235294 2.44912e-19
0.04 0.00238051 -6.93889e-18
0.0393333 0.00241323 -3.19189e-18
0.0386665 0.00244282 -1.94265e-18
0.0379997 0.00247317 -2.6819e-18
0.0373331 0.00250651 2.01657e-18
0.0366667 0.00254374 0
0.036 0.00258731 -3.19189e-18
0.0353331 0.0026268 -8.18536e-18
0.0346663 0.00266858 -4.42541e-18
0.0339997 0.00271357 -5.21534e-18
0.0333333 0.00276187 -6.93889e-18
0.0326667 0.00281731 -1.27676e-17
0.0319998 0.00286968 -1.20039e-17
0.0313331 0.00292546 -1.02553e-17
0.0306668 0.00298482 -8.83748e-18
0.03 0.00304796 -6.93889e-18
0.0294499 0.00310503 -1.15739e-17
0.0288998 0.00316182 -1.13516e-17
0.0283499 0.00322128 -1.82205e-17
0.0278004 0.0032835 -1.62361e-17
0.0273799 0.00333333 -1.62594e-17
0.0272373 0.00335083 -1.38402e-17
0.0270946 0.00336854 -1.83598e-17
0.026952 0.00338645 -1.17771e-17
0.0268095 0.00340457 -2.046e-17
0.0266667 0.00342293 -2.75318e-17
0.026 0.00351158 -3.00859e-17
0.0253338 0.00360344 -2.84686e-17
0.0246682 0.00370012 -3.31011e-17
0.0240034 0.00380181 -3.09532e-17
0.0233333 0.00390969 -3.42665e-17
0.0226667 0.00403606 -4.34975e-17
0.0219994 0.00415921 -4.57843e-17
0.0213331 0.00428766 -4.35048e-17
0.0206681 0.00442224 -4.09499e-17
0.02 0.00457405 -3.94589e-17
0.0193333 0.00475312 -4.38503e-17
0.0186665 0.00493157 -4.70211e-17
0.0179995 0.00510933 -4.79522e-17
0.017336 0.00529971 -4.33133e-17
0.0166667 0.00552125 -4.996e-17
0.0160624 0.00575033 -4.42874e-17
0.0154591 0.00598164 -4.25683e-17
0.0148599 0.00622369 -3.74014e-17
0.0142678 0.00648235 -4.62827e-17
0.0138778 0.00666667 -5.36424e-17
0.0137689 0.00672094 -5.90121e-17
0.0136604 0.00677596 -5.18925e-17
0.0135523 0.00683175 -5.72636e-17
0.0134446 0.0068883 -5.99243e-17
0.0133333 0.00694799 -6.56941e-17
0.0126667 0.00731503 -6.35298e-17
0.0120123 0.00770363 -5.93197e-17
0.0113733 0.00811684 -6.42035e-17
0.0107514 0.00855556 -5.92928e-17
0.01 0.00914601 -6.38378e-17
0.00980943 0.00931681 -6.1974e-17
0.00962051 0.00948942 -6.01143e-17
0.00943325 0.00966384 -5.83147e-17
0.00924772 0.00984009 -5.80842e-17
0.00908271 0.01 -5.55112e-17
0.0085995 0.0104767 -5.7096e-17
0.00813939 0.0109757 -6.6057e-17
0.00770387 0.0114963 -6.89713e-17
0.00729199 0.0120358 -6.82689e-17
0.00666667 0.0129266 -6.80012e-17
0.00661664 0.013008 -5.97578e-17
0.00656692 0.0130895 -6.26162e-17
0.00651751 0.0131712 -6.68618e-17
0.00646839 0.0132531 -5.79565e-17
0.00642043 0.0133333 -5.68989e-17
0.00602284 0.014 -4.6213e-17
0.00566162 0.0146871 -4.70103e-17
0.00533108 0.0153894 -4.9133e-17
0.00502729 0.0161037 -5.24723e-17
0.00479036 0.0166667 -5.25654e-17
0.0045119 0.0173333 -5.46487e-17
0.00427296 0.0180152 -5.17727e-17
0.00406007 0.0187056 -5.64549e-17
0.00385804 0.0193992 -5.50593e-17
0.00369271 0.02 -6.04898e-17
0.00362083 0.0202582 -5.83839e-17
0.00355464 0.020518 -5.81396e-17
0.00349029 0.0207782 -5.51705e-17
0.00342739 0.0210387 -5.18563e-17
0.00333333 0.0214378 -4.83675e-17
0.00324723 0.0218169 -5.2879e-17
0.00316377 0.0221966 -4.33035e-17
0.00308287 0.0225769 -4.4826e-17
0.00300442 0.0229576 -3.38544e-17
0.00292945 0.0233333 -3.747e-17
0.00279194 0.024 -3.23352e-17
0.00266993 0.0246697 -3.41444e-17
0.00255565 0.0253407 -3.96907e-17
0.00244848 0.0260129 -3.62109e-17
0.0023456 0.0266667 -3.19189e-17
0.00222952 0.0273333 -2.95597e-17
0.00213231 0.028003 -2.40704e-17
0.00205075 0.0286748 -1.98301e-17
0.00197491 0.0293472 -2.41056e-17
0.00188998 0.03 -2.498e-17
0.00179053 0.0306667 -2.95597e-17
0.00171116 0.031336 -2.78988e-17
0.00165085 0.0320074 -2.89493e-17
0.00159263 0.0326789 -3.52138e-17
0.00152224 0.0333333 -3.72412e-17
0.00143621 0.034 -2.92693e-17
0.00137165 0.0346691 -2.44609e-17
0.00132686 0.0353398 -1.96478e-17
0.00128299 0.0360105 -2.32422e-17
0.00122508 0.0366667 -2.49385e-17
0.00115024 0.0373333 -1.89158e-17
0.00109843 0.0380022 -1.88606e-17
0.0010606 0.038672 -1.54826e-17
0.00102277 0.0393418 -1.98627e-17
0.000976019 0.04 -1.96665e-17
0.000910747 0.0406667 -1.26189e-17
0.000870408 0.0413353 -3.04218e-18
0.000837733 0.0420044 -7.50127e-18
0.000805057 0.0426734 -5.82982e-18
0.000768613 0.0433333 -4.05556e-18
0.000711676 0.044 1.59038e-18
0.000681933 0.0446684 2.47552e-18
0.000653737 0.0453369 1.86751e-18
0.000625541 0.0460054 5.9584e-18
0.000597652 0.0466667 5.9436e-18
0.00054804 0.0473333 2.45269e-18
0.000523761 0.0480014 1.35054e-18
0.000499481 0.0486695 -5.59782e-19
0.000475201 0.0493375 -4.4479e-18
0.000451125 0.05 -4.91461e-18
0.000407932 0.0506667 -7.54885e-18
0.000387041 0.0513344 -3.27955e-18
0.000366149 0.0520021 -2.2934e-18
0.000345258 0.0526699 -2.36457e-18
0.0003245 0.0533333 -1.5806e-17
0.000286818 0.054 -5.61243e-18
0.000268752 0.0546675 -1.34913e-17
0.000250687 0.055335 -7.14979e-18
0.000232622 0.0560025 -5.13888e-18
0.000214646 0.0566667 -7.29635e-18
0.000181454 0.0573333 -5.09002e-18
0.00016554 0.0580006 -7.76863e-18
0.000149627 0.0586679 -2.6389e-18
0.000133713 0.0593352 -7.91352e-18
0.00011786 0.06 -8.52295e-18
9.42881e-05 0.0605245 -5.87554e-18
8.27576e-05 0.0610494 -4.6353e-18
7.1227e-05 0.0615742 -5.82367e-18
5.96965e-05 0.0620991 -4.18961e-18
3.25831e-05 0.0633333 1.33352e-18
2.60664e-05 0.0634862 4.71454e-19
2.27004e-05 0.0636393 6.36974e-18
1.93344e-05 0.0637923 3.85461e-18
1.59684e-05 0.0639453 7.23754e-18
0 0.0646712 6.39136e-18
0.05 0.00434783 5.94331e-18
0.0493333 0.00434873 4.55403e-18
0.0486667 0.0043527 3.15964e-18
0.048 0.00435906 -2.9144e-18
0.0473334 0.0043671 -1.47047e-18
0.0466667 0.00437804 1.72965e-18
0.046 0.004393 1.01086e-18
0.0453334 0.00440962 7.22818e-18
0.0446668 0.00442789 9.02869e-19
0.0440003 0.00444779 4.47179e-18
0.0433333 0.00447158 -1.4383e-18
0.0426667 0.00450059 -1.93894e-18
0.042 0.00453006 -3.5489e-19
0.0413334 0.00456023 2.63666e-18
0.0406669 0.00459204 -1.71907e-18
0.04 0.00462945 -5.62792e-18
0.0393333 0.00467337 -9.1705e-18
0.0386666 0.00471674 -1.20183e-17
0.0379999 0.00475957 -1.02535e-17
0.0373333 0.00480468 -9.76213e-18
0.0366667 0.00485736 -1.69727e-18
0.036 0.00491794 -1.06293e-17
0.0353332 0.00497725 -1.62743e-17
0.0346663 0.00503527 -1.76327e-17
0.0339998 0.00509699 -1.57471e-17
0.0333333 0.00516769 -1.38778e-17
0.0326667 0.00524782 -1.63758e-17
0.0319998 0.00532627 -1.78325e-17
0.0313327 0.00540297 -2.12493e-17
0.0306664 0.0054857 -2.33603e-17
0.03 0.00557857 -1.80411e-17
0.0293333 0.00568258 -2.19269e-17
0.0286664 0.00578484 -2.17183e-17
0.028 0.00589048 -1.9195e-17
0.0273348 0.00600343 -2.25867e-17
0.0266667 0.00612488 -2.63678e-17
0.0261283 0.00623324 -1.57569e-17
0.02559 0.0063417 -2.45749e-17
0.0250529 0.00645561 -2.02976e-17
0.0245169 0.00657521 -2.17735e-17
0.0241275 0.00666667 -2.42209e-17
0.0239687 0.00670538 -2.67319e-17
0.02381 0.00674466 -2.99371e-17
0.0236514 0.00678452 -2.82853e-17
0.023493 0.00682497 -2.10826e-17
0.0233333 0.00686639 -1.83737e-17
0.0226667 0.00704419 -1.03432e-17
0.0220025 0.00723113 -7.87892e-18
0.0213415 0.00742889 -6.01648e-18
0.020684 0.00763795 -6.11344e-18
0.02 0.00787217 -1.11158e-19
0.0193333 0.00812569 1.73645e-18
0.0186708 0.00838973 2.99054e-18
0.0180127 0.00866489 4.39843e-18
0.0173621 0.00895716 7.98169e-18
0.0166667 0.00929817 6.93889e-18
0.0164058 0.00943854 9.28009e-18
0.0161461 0.00958091 1.05814e-17
0.0158876 0.00972554 5.46071e-18
0.0156308 0.00987316 5.19446e-18
0.0154161 0.01 0
0.0149995 0.0102517 4.71636e-18
0.0145891 0.0105133 6.84352e-19
0.014185 0.0107847 -7.24469e-19
0.0137878 0.0110659 3.24385e-19
0.0133333 0.0114077 1.11865e-17
0.0128563 0.0117928 6.14451e-18
0.0123896 0.0121904 5.10063e-19
0.0119337 0.0126003 4.41256e-18
0.0114894 0.0130227 6.1263e-18
0.0111806 0.0133333 6.24506e-18
0.0109444 0.0135805 7.21649e-18
0.0107137 0.0138327 1.02161e-17
0.0104884 0.0140897 1.01608e-17
0.0102684 0.0143513 1.30445e-17
0.01 0.0146838 1.66902e-17
0.00969574 0.0150804 6.4322e-18
0.00940071 0.0154839 7.32866e-18
0.00911489 0.0158939 1.25762e-17
0.00883778 0.0163099 1.61602e-17
0.00860836 0.0166667 2.498e-17
0.00822003 0.0172886 1.77581e-17
0.00785928 0.0179268 1.39692e-17
0.00752489 0.0185793 8.07381e-18
0.00720899 0.019241 9.20615e-18
0.00687106 0.02 -8.77194e-19
0.00683018 0.0200983 5.95958e-18
0.00678992 0.0201969 -6.58005e-19
0.00675016 0.0202957 -1.67088e-19
0.0067108 0.0203946 -2.88581e-18
0.00666667 0.0205068 -1.39995e-17
0.00644732 0.0210721 -1.05057e-17
0.0062396 0.0216418 -1.76262e-17
0.00604285 0.0222154 -1.21411e-17
0.00585639 0.0227923 -4.20174e-18
0.00568763 0.0233333 -5.55112e-18
0.00547827 0.024 -5.96745e-18
0.00529139 0.0246733 5.44043e-19
0.00512589 0.0253522 1.37304e-19
0.00496826 0.026033 -3.18987e-18
0.00481767 0.0266667 -9.75882e-19
0.00465567 0.0273333 -1.20709e-18
0.00451466 0.0280048 -6.15742e-18
0.00439028 0.0286795 -5.43363e-18
0.00427008 0.0293549 -1.33921e-17
0.00415438 0.03 -1.66329e-17
0.00402965 0.0306667 -1.36496e-17
0.00392412 0.0313366 -5.69679e-18
0.00382289 0.0320073 -1.37511e-17
0.00372529 0.0326785 -1.13994e-17
0.00363355 0.0333333 -1.299e-17
0.00357351 0.0337542 -1.11482e-17
0.00351841 0.0341758 -1.34769e-17
0.00346465 0.0345976 -1.61544e-17
0.0034122 0.0350195 -1.03974e-17
0.00333333 0.0356699 -1.11022e-17
0.00331008 0.0358693 -1.4265e-18
0.00328709 0.0360687 -2.85257e-18
0.00326436 0.0362681 -4.2782e-18
0.00324189 0.0364675 -5.70341e-18
0.0032197 0.0366667 -6.93889e-18
0.00314486 0.0373333 -8.74301e-18
0.0030742 0.0380005 -1.22826e-17
0.00300642 0.0386679 -8.87109e-18
[...]
POINT_DATA 41141
 FIELD attributes 1
U 3 41141 float
-6.45187e-19 	-1.70285e-21 	0
-0.0152374 	2.53322e-05 	0 -0.0152374 	2.53322e-05 	0 -0.0152374 	2.53322e-05 	0 -0.0152374 	2.53322e-05 	0 -0.0152374 	2.53322e-05 	0 -0.0152374 	2.53322e-05 	0 -0.015571 	5.0495e-05 	0 -0.0158085 	8.87819e-05 	-3.92165e-25 -0.0157687 	0.000163587 	-1.876e-24 -0.0155153 	0.000220598 	-3.36681e-24 -0.0151912 	0.000271106 	-4.86347e-24 -0.0155159 	0.000264298 	1.90526e-22 -0.0156985 	0.000282043 	3.21163e-22 -0.0155981 	0.000350991 	3.17323e-22 -0.0153643 	0.000425845 	1.89754e-22 -0.015069 	0.000504375 	-6.02343e-24 -0.015371 	0.000469525 	3.45897e-23 -0.0154621 	0.000478512 	5.50796e-23 -0.0153122 	0.000541842 	5.08849e-23 -0.0151078 	0.000624988 	2.73453e-23 -0.0148525 	0.000729012 	-1.63056e-23 -0.015121 	0.000671007 	-1.19634e-23 -0.015091 	0.000686758 	-2.90124e-23 -0.0149055 	0.000745619 	-5.83529e-23 -0.0147215 	0.000822262 	-8.89517e-23 -0.0145141 	0.000948574 	-1.22968e-22 -0.0147413 	0.000872924 	-9.28464e-23 -0.0145707 	0.000913068 	-8.77929e-23 -0.0143645 	0.000969341 	-8.61427e-23 -0.0141747 	0.00102739 	-8.47777e-23 -0.0140204 	0.00116607 	-1.11334e-22 -0.0141186 	0.00110853 	-1.94448e-22 -0.0138901 	0.00116239 	-1.56124e-22 -0.0136774 	0.00121838 	-1.17219e-22 -0.0134811 	0.00127657 	-7.77091e-23 -0.0133448 	0.00138456 	1.0859e-23 -0.0132978 	0.00137257 	-4.69359e-23 -0.0131125 	0.00141792 	-3.34246e-23 -0.0129377 	0.00146501 	-1.92343e-23 -0.012774 	0.00151392 	-4.34076e-24 -0.0126574 	0.00155279 	7.617e-24 -0.0126206 	0.00156667 	1.19035e-23 -0.0125847 	0.0015807 	1.6243e-23 -0.0125496 	0.00159486 	2.06357e-23 -0.0125153 	0.00160916 	2.50821e-23 -0.0124445 	0.00165478 	9.23732e-24 -0.0122056 	0.0016829 	6.85191e-24 -0.0120019 	0.00174341 	7.77178e-24 -0.0118143 	0.00180722 	8.66076e-24 -0.0116434 	0.00187446 	9.5175e-24 -0.0112856 	0.00213937 	5.15898e-23 -0.0109344 	0.00201796 	3.81978e-22 -0.0107455 	0.00207163 	4.68906e-22 -0.0105831 	0.00214155 	5.41434e-22 -0.0103193 	0.00234488 	4.40658e-22 -0.0099854 	0.00268224 	1.81796e-22 -0.0096776 	0.00258974 	4.48552e-22 -0.00936819 	0.00249654 	7.15291e-22 -0.0090548 	0.00259804 	7.29469e-22 -0.00878739 	0.0029087 	4.95003e-22 -0.00856712 	0.00324814 	2.61717e-22 -0.0083431 	0.00319835 	4.66165e-22 -0.00806085 	0.00325663 	5.01955e-22 -0.00776258 	0.00339067 	4.34824e-22 -0.00749801 	0.00354425 	3.64324e-22 -0.00734557 	0.00366059 	3.14908e-22 -0.0072978 	0.0037004 	3.0092e-22 -0.00725149 	0.00374117 	2.86786e-22 -0.00720668 	0.00378291 	2.72506e-22 -0.00714836 	0.00383661 	2.7088e-22 -0.00708223 	0.00389923 	2.75532e-22 -0.00667743 	0.00396561 	1.82901e-22 -0.00641022 	0.00414466 	9.87846e-23 -0.00617278 	0.00435497 	1.92623e-23 -0.00590312 	0.00463864 	2.61801e-23 -0.00562496 	0.00504143 	3.22603e-23 -0.00556322 	0.00508289 	1.86094e-23 -0.00550461 	0.00512726 	4.95195e-24 -0.00544822 	0.00517563 	3.03244e-23 -0.00539452 	0.00522758 	7.79021e-23 -0.00534924 	0.00527693 	1.20631e-22 -0.0050418 	0.00546808 	1.2149e-22 -0.00476736 	0.0056988 	1.16375e-22 -0.00453295 	0.00593752 	1.05238e-22 -0.00433691 	0.0061784 	8.85646e-23 -0.00406929 	0.00661661 	5.38228e-23 -0.00405247 	0.00664479 	8.91794e-23 -0.00403604 	0.00667349 	1.24231e-22 -0.00402 	0.0067027 	1.5898e-22 -0.00402028 	0.00672425 	8.47814e-23 -0.00402241 	0.00674466 	4.02221e-25 -0.00363544 	0.00691471 	-6.81082e-22 -0.00342285 	0.00727303 	-1.12603e-21 -0.0032703 	0.0076893 	-1.50702e-21 -0.00336082 	0.00798589 	-1.19449e-21 -0.00343505 	0.00822406 	-9.47782e-22 -0.0030083 	0.00858427 	-6.23011e-22 -0.00274311 	0.00889594 	-3.65714e-22 -0.00264998 	0.00909832 	-1.98633e-22 -0.00256655 	0.00932645 	-2.66168e-23 -0.00269622 	0.00968661 	1.79617e-23 -0.0025307 	0.00992988 	1.46331e-24 -0.00248234 	0.0100371 	0 -0.00244674 	0.0101354 	0 -0.00241267 	0.0102384 	0 -0.00236283 	0.0104031 	0 -0.00231991 	0.0105543 	0 -0.00227974 	0.0107145 	0 -0.00224222 	0.0108834 	0 -0.00220724 	0.0110608 	0 -0.0022706 	0.0110081 	0 -0.00202298 	0.0111036 	0 -0.00194999 	0.0114499 	0 -0.00188611 	0.0118305 	0 -0.00189632 	0.0120499 	0 -0.00205901 	0.0118254 	0 -0.0017384 	0.0119761 	0 -0.00148955 	0.0122689 	0 -0.00144257 	0.0127897 	0 -0.00163454 	0.0125632 	0 -0.00182357 	0.0122245 	0 -0.00148296 	0.0125059 	0 -0.00116073 	0.0129208 	0 -0.0011287 	0.0130187 	0 -0.0013614 	0.0126584 	0 -0.00157407 	0.012198 	0 -0.00121821 	0.0126257 	0 -0.000883587 	0.0132296 	0 -0.000840827 	0.0128557 	0 -0.00109484 	0.0124058 	0 -0.00132707 	0.0118211 	0 -0.000961057 	0.0124072 	0 -0.000720394 	0.0127545 	0 -0.000695583 	0.0123152 	0 -0.000836643 	0.0117792 	0 -0.00108422 	0.0110739 	0 -0.000713436 	0.0118257 	0 -0.000577468 	0.011824 	0 -0.000555789 	0.0113802 	0 -0.000599849 	0.0108618 	0 -0.000858052 	0.0100468 	0 -0.000487989 	0.0109668 	0 -0.000447766 	0.0106161 	0 -0.000429252 	0.0101772 	0 -0.000410739 	0.00973824 	0 -0.00065795 	0.00884138 	0 -0.000349011 	0.00960319 	0 -0.000333549 	0.00917775 	0 -0.000318087 	0.0087523 	0 -0.000302625 	0.00832685 	0 -0.000481766 	0.00743596 	0 -0.000247819 	0.0079208 	0 -0.000235128 	0.00751515 	0 -0.000222436 	0.0071095 	0 -0.000209744 	0.00670385 	0 -0.000332305 	0.00587907 	2.90549e-37 -0.000164787 	0.00608866 	0 -0.000154408 	0.00570517 	0 -0.000144029 	0.00532167 	0 -0.00013365 	0.00493818 	0 -0.000210357 	0.00422508 	2.93127e-40 -9.93241e-05 	0.00416495 	0 -9.06133e-05 	0.00379968 	0 -8.19026e-05 	0.00343441 	0 -7.31918e-05 	0.00306915 	0 -0.000112236 	0.00249725 	-1.05368e-37 -5.0987e-05 	0.00232096 	0 -4.47517e-05 	0.00203713 	0 -3.85165e-05 	0.0017533 	0 -3.22813e-05 	0.00146947 	0 -3.14646e-05 	0.00073833 	0 -1.50698e-05 	0.000685068 	0 -1.31238e-05 	0.000596604 	0 -1.11778e-05 	0.00050814 	0 -9.23186e-06 	0.000419676 	0 0 	0 	0
-0.0296355 	4.00938e-05 	0 -0.0298571 	0.00017792 	0 -0.0299658 	0.000285919 	-6.94895e-25 -0.029944 	0.000361013 	-2.15632e-24 -0.0297568 	0.00048849 	-1.77722e-23 -0.0294395 	0.000660474 	-4.53675e-23 -0.0295714 	0.000737456 	-2.24463e-22 -0.0296302 	0.000812024 	-3.3489e-22 -0.0295723 	0.000882707 	-3.40735e-22 -0.0292926 	0.0010451 	-2.30676e-22 -0.0289116 	0.00125811 	-5.85537e-23 -0.0289553 	0.00127977 	-6.84435e-23 -0.0289719 	0.00131132 	-7.71586e-23 -0.0288835 	0.00137863 	-8.15337e-23 -0.0284889 	0.00159821 	-5.55244e-23 -0.0280685 	0.00184875 	-2.40212e-23 -0.0280319 	0.00182361 	-4.84763e-23 -0.0279923 	0.00179811 	-7.29321e-23 -0.0278378 	0.001884 	-9.60742e-23 -0.0273637 	0.00216252 	-9.21098e-23 -0.0269289 	0.00244703 	-8.77809e-23 -0.0268245 	0.002386 	-2.7616e-22 -0.0267134 	0.00232396 	-4.64633e-22 -0.0264086 	0.00244513 	-4.49025e-22 -0.0259411 	0.0027521 	-2.29623e-22 -0.0255158 	0.00306715 	-9.65387e-24 -0.0253588 	0.0029829 	1.5279e-22 -0.0251937 	0.00289707 	3.15166e-22 -0.024676 	0.00306349 	3.28356e-22 -0.0242333 	0.00337721 	2.40719e-22 -0.0238392 	0.00371935 	1.40429e-22 -0.0236459 	0.00362543 	2.79257e-22 -0.0232576 	0.00368679 	3.1541e-22 -0.0227507 	0.00386298 	2.78896e-22 -0.0222724 	0.00404883 	2.41174e-22 -0.0219263 	0.00441346 	9.30625e-23 -0.0217176 	0.00437604 	8.51433e-23 -0.0213184 	0.00452062 	1.16003e-22 -0.020938 	0.00467259 	1.47379e-22 -0.0205772 	0.00483228 	1.79294e-22 -0.0203294 	0.00495449 	2.0295e-22 -0.020233 	0.00500858 	2.04802e-22 -0.0201385 	0.00506348 	2.0659e-22 -0.0200461 	0.0051192 	2.08312e-22 -0.0199557 	0.00517576 	2.09969e-22 -0.0198008 	0.00528085 	2.18158e-22 -0.0192962 	0.00543133 	1.97842e-22 -0.0188743 	0.00564654 	2.02091e-22 -0.0184842 	0.00587704 	2.03949e-22 -0.0180503 	0.00618128 	2.23298e-22 -0.0174751 	0.00664554 	2.83143e-22 -0.0169854 	0.00676884 	1.60696e-22 -0.0165263 	0.00691064 	3.73954e-23 -0.0159673 	0.00717258 	0 -0.0155152 	0.00760793 	4.0281e-23 -0.0150858 	0.00811853 	8.13773e-23 -0.0149414 	0.0081898 	3.4859e-23 -0.0147885 	0.00827465 	0 -0.0146003 	0.00839346 	0 -0.0144198 	0.00851766 	0 -0.0142743 	0.00862683 	0 -0.0139467 	0.00888567 	0 -0.0136426 	0.00916382 	0 -0.0133628 	0.00946159 	0 -0.0130219 	0.00979355 	0 -0.0126461 	0.01021 	0 -0.0122945 	0.0104729 	0 -0.0119766 	0.0107663 	0 -0.0116442 	0.0110706 	0 -0.0113334 	0.0114006 	0 -0.0111374 	0.0116592 	0 -0.0109156 	0.0119293 	0 -0.0107078 	0.0122138 	0 -0.0104972 	0.0124838 	-1.84432e-23 -0.0102868 	0.0127445 	-5.15827e-23 -0.0100406 	0.0130868 	-9.29261e-23 -0.00978834 	0.0133871 	-9.92779e-23 -0.00955853 	0.0137128 	-1.06741e-22 -0.00935598 	0.0140454 	-1.37754e-22 -0.00920079 	0.0143073 	-2.85869e-22 -0.00908251 	0.0145447 	-4.11807e-22 -0.00856309 	0.015151 	-6.36483e-22 -0.00810402 	0.0158133 	-8.2636e-22 -0.00777684 	0.0162881 	-5.30157e-22 -0.00748481 	0.0168122 	-2.39029e-22 -0.00728273 	0.0175151 	1.45788e-22 -0.00721524 	0.0176635 	2.43334e-22 -0.00715889 	0.017783 	2.72484e-22 -0.00711228 	0.0178768 	2.41329e-22 -0.00706654 	0.0179719 	2.10511e-22 -0.0070157 	0.0180811 	1.75982e-22 -0.0067735 	0.0185757 	1.6046e-22 -0.00655594 	0.0191116 	1.46395e-22 -0.00636157 	0.0196862 	1.33703e-22 -0.00628839 	0.0201581 	1.35753e-22 -0.00640082 	0.0203824 	1.61246e-22 -0.00583342 	0.0210173 	1.01247e-22 -0.00530019 	0.0217406 	4.23324e-23 -0.00520966 	0.0224997 	1.69813e-22 -0.00543257 	0.0228611 	3.55628e-22 -0.00563304 	0.023181 	5.27232e-22 -0.00505294 	0.024061 	2.32891e-22 -0.00458968 	0.0248955 	0 -0.00448551 	0.0252072 	0 -0.00458723 	0.0255757 	2.90374e-25 -0.00485548 	0.0259522 	8.17426e-25 -0.00426822 	0.0270961 	2.95214e-26 -0.00414762 	0.0274778 	0 -0.00405027 	0.0278539 	0 -0.00395811 	0.0282545 	0 -0.00408799 	0.0286568 	-1.2135e-22 -0.0038289 	0.0292958 	0 -0.00376674 	0.0295504 	0 -0.0037066 	0.0298159 	0 -0.00364844 	0.030092 	0 -0.00356179 	0.0305333 	0 -0.0035371 	0.0306741 	0 -0.0035128 	0.030817 	0 -0.00348888 	0.030962 	0 -0.00346536 	0.0311091 	0 -0.00348773 	0.0310676 	0 -0.00333931 	0.0315266 	0 -0.00324904 	0.0319955 	0 -0.00316321 	0.032492 	0 -0.00308166 	0.033015 	0 -0.00319862 	0.0326696 	0 -0.00289462 	0.0333457 	0 -0.0028077 	0.0338696 	0 -0.00272484 	0.034422 	0 -0.0026554 	0.0349537 	0 -0.00289982 	0.0339537 	0 -0.00252976 	0.0348737 	0 -0.00238788 	0.0355252 	0 -0.00230752 	0.036123 	0 -0.00235229 	0.0360878 	0 -0.00259965 	0.0349335 	0 -0.00223566 	0.036019 	0 -0.00199723 	0.0369457 	0 -0.00191994 	0.0375773 	0 -0.00206326 	0.0369565 	0 -0.00231002 	0.0356546 	0 -0.00195694 	0.0368985 	0 -0.0016474 	0.0381621 	7.60885e-38 -0.00157534 	0.0388153 	6.47903e-37 -0.00180058 	0.0376168 	1.22132e-36 -0.00204483 	0.0361767 	1.78789e-36 -0.00170657 	0.037568 	1.15723e-36 -0.00137569 	0.0390942 	5.32848e-37 -0.00132704 	0.0395622 	7.82552e-40 -0.00157571 	0.038091 	1.66335e-39 -0.00181838 	0.0365226 	2.53386e-39 -0.00149742 	0.0380488 	1.57811e-39 -0.00118313 	0.0397126 	6.31418e-40 -0.00115185 	0.0399849 	-3.96613e-37 -0.0014037 	0.0384 	-9.75927e-37 -0.00164992 	0.0367105 	-1.54895e-36 -0.00134703 	0.0383606 	-9.26158e-37 -0.00105027 	0.0401502 	-3.0898e-37 -0.00103846 	0.0402615 	0 -0.00130531 	0.0385669 	0 -0.00156635 	0.036755 	0 -0.00128055 	0.0385256 	0 -0.00100069 	0.0404386 	0 -0.00100564 	0.040396 	0 -0.00130827 	0.038583 	0 -0.00160389 	0.036629 	0 -0.00133326 	0.0385345 	0 -0.00106902 	0.0405888 	0 -0.0010769 	0.0403484 	0 -0.0014479 	0.038382 	0 -0.00180862 	0.0362303 	0 -0.00155289 	0.0383221 	0 -0.00130513 	0.0405767 	0 -0.00128141 	0.0399679 	0 -0.00175777 	0.0377842 	0 -0.00222486 	0.035311 	0 -0.00199148 	0.0377178 	0 -0.00180395 	0.0395535 	0 -0.00175788 	0.0385434 	0 -0.00221887 	0.0362716 	0 -0.00283694 	0.0332303 	0 -0.00265379 	0.0362399 	0 -0.00250992 	0.0370113 	0 -0.00239449 	0.0353091 	0 -0.00262747 	0.0328345 	0 -0.00341939 	0.0287795 	0 -0.00335824 	0.0330087 	0 -0.00309234 	0.0309617 	0 -0.00279483 	0.0279829 	0 -0.00249732 	0.0250041 	0 -0.00318411 	0.0196007 	0 -0.00308579 	0.0222289 	0 -0.00242426 	0.0174635 	0 -0.00176273 	0.012698 	0 -0.0011012 	0.00793263 	0 -0.000165865 	0.000796921 	0 -0.000174882 	0.00101487 	0 -0.000138445 	0.000803422 	0 -0.000102009 	0.000591976 	0 -6.55728e-05 	0.00038053 	0 0 	0 	0
-0.0430745 	4.27748e-05 	0 -0.0430434 	0.000254937 	-2.01528e-23 -0.0429614 	0.00048819 	-4.60228e-23 -0.0429001 	0.000721952 	-7.20315e-23 -0.0428596 	0.000956219 	-9.81787e-23 -0.0427952 	0.00118096 	-1.24712e-22 -0.0426479 	0.00137677 	-1.53493e-22 -0.0424628 	0.00159569 	-1.53837e-22 -0.0422975 	0.00181613 	-1.53392e-22 -0.0421522 	0.0020381 	-1.52148e-22 -0.0421015 	0.00212886 	-1.51315e-22 -0.0420887 	0.00215574 	-1.51588e-22 -0.0420763 	0.00218264 	-1.51857e-22 -0.0420641 	0.00220956 	-1.52122e-22 -0.0420523 	0.00223651 	-1.52382e-22 -0.0420313 	0.00226807 	-1.53432e-22 -0.041754 	0.00247576 	-1.25628e-22 -0.0414926 	0.00268501 	-9.77992e-23 -0.0412516 	0.00289692 	-6.97847e-23 -0.0410314 	0.00311155 	-4.1582e-23 -0.0407188 	0.00338791 	-1.86834e-23 -0.0404052 	0.00358439 	-3.62192e-24 -0.0400822 	0.00378808 	4.90205e-24 -0.0397799 	0.00399548 	1.36492e-23 -0.0394986 	0.00420667 	2.26243e-23 -0.038975 	0.00456771 	1.70013e-23 -0.0386141 	0.00472455 	2.11152e-22 -0.0382532 	0.00492943 	2.54724e-22 -0.0379135 	0.00513923 	2.99589e-22 -0.0374959 	0.00541312 	2.74815e-22 -0.0368541 	0.00584361 	7.40137e-23 -0.0364349 	0.00597691 	4.75067e-23 -0.0360397 	0.00613378 	3.02821e-23 -0.0356873 	0.00635428 	4.23123e-23 -0.0350342 	0.00678653 	7.49111e-23 -0.0344064 	0.00724536 	1.07796e-22 -0.0339615 	0.0073768 	5.87118e-23 -0.0335344 	0.007515 	9.42585e-24 -0.0328742 	0.00783121 	7.67343e-26 -0.0322607 	0.00829803 	1.67178e-23 -0.0316805 	0.00879339 	3.32037e-23 -0.0312431 	0.00894241 	5.13024e-24 -0.0305954 	0.00926587 	0 -0.0299332 	0.00964518 	0 -0.0293134 	0.0100464 	0 -0.0287515 	0.0104607 	0 -0.0287448 	0.0104668 	0 -0.0287381 	0.0104728 	0 -0.0287315 	0.0104789 	0 -0.0287236 	0.0104856 	0 -0.0287134 	0.0104936 	0 -0.0280518 	0.0108908 	0 -0.0274364 	0.0113179 	0 -0.0268661 	0.0117731 	0 -0.0262433 	0.0123054 	0 -0.0254603 	0.0130009 	0 -0.024822 	0.013395 	0 -0.0242161 	0.0138317 	0 -0.0234715 	0.0143798 	0 -0.0227941 	0.0149762 	0 -0.0220962 	0.0157196 	0 -0.0220955 	0.0157203 	0 -0.0220948 	0.0157211 	0 -0.0220938 	0.0157218 	0 -0.0220928 	0.0157226 	0 -0.0220919 	0.0157234 	0 -0.0213278 	0.0163519 	0 -0.0206319 	0.017044 	0 -0.0199917 	0.0177953 	-3.13451e-26 -0.019278 	0.018564 	-3.69503e-25 -0.0184415 	0.0196627 	-8.14923e-25 -0.0183482 	0.0197871 	-8.16938e-25 -0.0182571 	0.0199136 	-8.1931e-25 -0.0181624 	0.0200324 	-7.00992e-24 -0.0180619 	0.0201397 	-2.17623e-23 -0.0179685 	0.0202435 	-3.57562e-23 -0.017189 	0.0210837 	-3.19737e-23 -0.0164888 	0.022014 	-2.47828e-23 -0.0158338 	0.0228765 	-5.23886e-23 -0.0152598 	0.0237465 	-1.10013e-22 -0.0148581 	0.024642 	-1.88141e-22 -0.0147651 	0.0248366 	-2.52052e-22 -0.0146736 	0.0250274 	-3.01304e-22 -0.0145811 	0.0251753 	-2.39189e-22 -0.0144903 	0.0253251 	-1.77489e-22 -0.014392 	0.0254923 	-1.09927e-22 -0.0139386 	0.026215 	2.53294e-22 -0.0135281 	0.0269912 	6.04138e-22 -0.0131585 	0.027818 	9.42978e-22 -0.0129165 	0.0284122 	6.48353e-22 -0.012748 	0.0288944 	2.28315e-22 -0.0121 	0.0299687 	-1.29714e-22 -0.0115061 	0.0311269 	-4.92579e-22 -0.0111304 	0.0318216 	-9.08857e-23 -0.0108944 	0.0325908 	6.55745e-22 -0.0108003 	0.0333388 	1.62794e-21 -0.0104551 	0.0341841 	2.27277e-21 -0.0102194 	0.0347526 	2.0366e-21 -0.0100217 	0.0352535 	1.55375e-21 -0.00983347 	0.0357722 	1.081e-21 -0.00957371 	0.0365499 	4.09016e-22 -0.0094826 	0.0368533 	3.06504e-22 -0.00939406 	0.0371618 	2.04254e-22 -0.00930802 	0.0374752 	1.02263e-22 -0.00922781 	0.0377872 	2.85897e-24 -0.00929298 	0.037841 	3.0302e-24 -0.00878048 	0.0387684 	-8.39907e-23 -0.00850868 	0.0397566 	-2.9414e-22 -0.00825885 	0.0407919 	-5.08215e-22 -0.00816323 	0.0415992 	-7.25689e-22 -0.00840207 	0.0417528 	-9.37857e-22 -0.00772764 	0.0429165 	-6.14158e-22 -0.00713076 	0.0441617 	-1.60445e-22 -0.00695261 	0.0453136 	1.24499e-21 -0.00724735 	0.0454755 	2.36753e-21 -0.0075254 	0.0456032 	3.45191e-21 -0.00684659 	0.0469951 	1.91974e-21 -0.0061947 	0.0484903 	4.08572e-22 -0.00603457 	0.0491176 	6.54372e-25 -0.00635837 	0.0492407 	3.63899e-24 -0.00666618 	0.0493246 	6.54274e-24 -0.00598803 	0.0509369 	2.70309e-24 -0.00548774 	0.0522515 	0 -0.00537999 	0.0526456 	0 -0.00551068 	0.0528563 	-2.99885e-21 -0.00583765 	0.052876 	-8.50726e-21 -0.00516574 	0.0546938 	-1.61242e-21 -0.00492821 	0.0554356 	0 -0.004824 	0.0558546 	0 -0.00472244 	0.0562946 	0 -0.0050566 	0.0562312 	-1.07942e-23 -0.00448938 	0.0579464 	0 -0.00438739 	0.0583605 	0 -0.00428775 	0.0587958 	0 -0.00419043 	0.0592519 	0 -0.0043362 	0.0593473 	2.53956e-21 -0.00397461 	0.0605746 	3.30253e-37 -0.00388008 	0.0609972 	9.66664e-37 -0.00378754 	0.0614403 	1.60196e-36 -0.00369694 	0.0619034 	2.23616e-36 -0.00369608 	0.0622117 	2.98459e-36 -0.003543 	0.0628216 	3.24655e-36 -0.00348828 	0.0630981 	2.69737e-36 -0.00343425 	0.0633828 	2.15124e-36 -0.00338091 	0.0636756 	1.60811e-36 -0.00330978 	0.0640818 	8.78501e-37 -0.00328674 	0.0642208 	6.94656e-37 -0.00326382 	0.0643613 	5.10889e-37 -0.00324104 	0.0645033 	3.27199e-37 -0.00321839 	0.0646468 	1.43587e-37 -0.00321815 	0.0646375 	4.48441e-39 -0.00313362 	0.0651331 	-5.18483e-37 -0.0030707 	0.0655612 	-1.08682e-36 -0.00300896 	0.0660045 	-1.65594e-36 -0.00294836 	0.0664629 	-2.22584e-36 -0.00297808 	0.066262 	-2.79584e-36 -0.00285819 	0.0670698 	-2.17304e-36 -0.00282799 	0.0675046 	-1.55158e-36 -0.00279845 	0.0679486 	-9.30518e-37 -0.00276956 	0.0684018 	-3.09865e-37 -0.00288403 	0.067675 	0 -0.00273814 	0.0688288 	0 -0.00276145 	0.0692877 	0 -0.00278469 	0.0697455 	0 -0.00280785 	0.0702023 	0 -0.00301757 	0.0689139 	0 -0.00283902 	0.0704673 	0 -0.00294872 	0.0709842 	0 -0.00305704 	0.0714828 	0 -0.003164 	0.0719634 	0 -0.0034937 	0.0699859 	0 -0.003246 	0.0720529 	0 -0.00349333 	0.0726868 	0 -0.00373646 	0.0732737 	0 -0.00400296 	0.0734339 	0 -0.00446147 	0.0708086 	0 -0.00422809 	0.0732153 	0 -0.00450613 	0.0744631 	0 -0.00495756 	0.0752197 	0 -0.00546741 	0.0743457 	0 -0.00606539 	0.0710465 	0 -0.00588224 	0.0740561 	0 -0.00604493 	0.076444 	0 -0.00680488 	0.0775161 	0 -0.00756967 	0.0744614 	0 -0.00830522 	0.0699015 	0 -0.00824407 	0.0741307 	0 -0.0082035 	0.0785371 	0 -0.00907784 	0.0787822 	0 -0.00990841 	0.0724257 	0 -0.0106438 	0.0655206 	0 -0.0108542 	0.0722719 	0 -0.0111178 	0.0793609 	0 -0.0105716 	0.0757105 	0 -0.0110403 	0.0654288 	0 -0.011313 	0.0543551 	0 -0.0120373 	0.0665136 	0 -0.0115201 	0.0668528 	0 -0.0100124 	0.0581039 	0 -0.00850483 	0.049355 	0 -0.00720876 	0.0312849 	0 -0.00791552 	0.0462811 	0 -0.00642978 	0.0375941 	0 -0.00494404 	0.0289072 	0 -0.0034583 	0.0202202 	0 0 	0 	0