# vtk DataFile Version 2.0
track0
ASCII
DATASET POLYDATA
POINTS 40702 float
0.05 8.57988e-20 2.57396e-18
0.05 0.00217391 -1.05592e-17
0.05 0.00217391 -1.05592e-17
0.05 0.00217391 -1.05592e-17
0.05 0.00217391 -1.05592e-17
0.05 0.00217391 -1.05592e-17
0.05 0.00217391 -1.38778e-17
0.0493333 0.00217515 -6.66134e-18
0.0486667 0.0021774 -4.37151e-18
0.048 0.00218122 -3.34111e-18
0.0473334 0.00218819 -5.03185e-18
0.0466667 0.00219774 -1.249e-17
0.046 0.00220972 -7.35523e-18
0.0453333 0.00222113 -6.8001e-18
0.0446667 0.00223315 -6.37716e-18
0.0440001 0.00224818 -1.34736e-17
0.0433333 0.0022667 -1.94289e-17
0.0426667 0.00228906 -1.70697e-17
0.0419999 0.00230945 -1.26986e-17
0.0413332 0.0023301 -1.60759e-17
0.0406666 0.0023537 -1.57158e-17
0.04 0.00238128 -1.11022e-17
0.0393333 0.00241402 -1.22125e-17
0.0386665 0.00244361 -1.44327e-17
0.0379997 0.00247395 -1.44767e-17
0.0373331 0.00250729 -9.78727e-18
0.0366667 0.00254449 -1.249e-17
0.036 0.00258805 -1.01308e-17
0.0353331 0.00262752 -1.51242e-17
0.0346663 0.00266928 -7.88792e-18
0.0339997 0.00271423 -1.5964e-17
0.0333333 0.00276249 -1.38778e-17
0.0326667 0.00281791 -1.69309e-17
0.0319998 0.00287023 -1.23508e-17
0.0313331 0.00292598 -8.86665e-18
0.0306668 0.00298528 -1.12653e-17
0.03 0.00304837 -1.249e-17
0.0294502 0.00310536 -1.01867e-17
0.0289004 0.00316206 -5.80157e-18
0.0283509 0.00322143 -4.4961e-18
0.0278016 0.00328356 -1.76217e-17
0.0273812 0.00333333 -1.1399e-17
0.0272383 0.00335085 -2.73538e-18
0.0270954 0.00336857 -7.25564e-18
0.0269526 0.00338649 2.10195e-18
0.0268097 0.00340463 4.52071e-18
0.0266667 0.003423 1.61177e-18
0.026 0.00351157 5.99635e-18
0.0253338 0.00360334 3.45004e-18
0.0246682 0.00369993 -1.52914e-18
0.0240034 0.00380152 -3.19757e-18
0.0233333 0.00390929 3.20417e-18
0.0226667 0.00403554 -3.94497e-18
0.0219994 0.00415856 -2.76205e-18
0.0213331 0.00428688 -1.17752e-18
0.0206681 0.00442133 6.85739e-19
0.02 0.00457296 9.47112e-18
0.0193333 0.00475186 1.04591e-17
0.0186665 0.00493012 8.07082e-18
0.0179995 0.00510767 6.3405e-18
0.0173359 0.00529784 6.98901e-18
0.0166667 0.00551915 0
0.0160609 0.00574865 1.25544e-19
0.0154559 0.00598038 -1.98369e-18
0.0148552 0.00622294 8.23905e-20
0.0142615 0.00648222 -5.32727e-18
0.0138714 0.00666667 -2.28381e-18
0.0137638 0.00672031 -7.65572e-18
0.0136565 0.0067747 -1.92602e-18
0.0135497 0.00682983 -3.13584e-18
0.0134432 0.00688571 -5.71626e-18
0.0133333 0.00694466 6.47595e-18
0.0126667 0.00731146 3.08954e-18
0.0120124 0.0076999 7.29988e-18
0.0113734 0.00811302 4.67492e-18
0.0107516 0.0085517 8.69867e-18
0.01 0.00914254 6.93889e-18
0.00980882 0.00931403 7.41647e-18
0.0096193 0.00948736 9.27766e-18
0.00943147 0.00966253 6.9065e-18
0.0092454 0.00983954 9.91112e-18
0.00908007 0.01 1.11022e-17
0.00859739 0.010477 9.51815e-18
0.00813789 0.0109763 2.11386e-18
0.00770305 0.0114973 -6.2025e-19
0.00729188 0.0120371 4.24033e-18
0.00666667 0.0129299 -6.93889e-18
0.00661718 0.0130106 -7.0213e-18
0.006568 0.0130915 -5.71543e-18
0.00651911 0.0131725 -5.79684e-18
0.00647053 0.0132537 -1.06114e-18
0.00642307 0.0133333 0
0.0060265 0.014 7.21645e-18
0.00566617 0.0146869 2.94997e-18
0.00533645 0.0153891 5.69768e-18
0.0050335 0.0161032 2.94599e-18
0.00479691 0.0166667 4.52338e-18
0.00451907 0.0173333 6.08447e-18
0.0042806 0.0180151 7.82463e-18
0.00406828 0.0187054 1.08539e-17
0.00386674 0.019399 1.01689e-17
0.00370168 0.02 8.80945e-18
0.00362801 0.0202648 1.21889e-18
0.00356029 0.0205312 9.8742e-18
0.00349449 0.0207981 1.42446e-17
0.0034302 0.0210653 1.61845e-17
0.00333333 0.0214781 1.99257e-17
0.00324948 0.0218491 1.92893e-17
0.00316813 0.0222207 1.63782e-17
0.0030892 0.0225929 2.31857e-17
0.00301261 0.0229655 2.58337e-17
0.00293931 0.0233333 1.80411e-17
0.00280212 0.024 1.76248e-17
0.00268016 0.0246696 2.48363e-17
0.00256587 0.0253406 2.62033e-17
0.00245863 0.0260127 3.32033e-17
0.00235585 0.0266667 3.60822e-17
0.00223993 0.0273333 4.53804e-17
0.00214278 0.028003 4.60123e-17
0.00206098 0.0286747 4.8535e-17
0.00198484 0.0293471 4.90832e-17
0.00189988 0.03 3.60822e-17
0.00180046 0.0306667 3.91354e-17
0.001721 0.031336 4.11432e-17
0.0016605 0.0320073 3.97618e-17
0.0016021 0.0326788 3.55786e-17
0.00153157 0.0333333 2.92789e-17
0.00144544 0.034 3.43028e-17
0.00138068 0.0346691 3.47765e-17
0.00133558 0.0353398 3.52294e-17
0.00129144 0.0360105 3.50586e-17
0.00123329 0.0366667 4.09673e-17
0.00115824 0.0373333 4.52556e-17
0.00110612 0.0380022 4.96482e-17
0.00106815 0.038672 4.73144e-17
0.00103018 0.0393418 4.0865e-17
0.000983101 0.04 4.55473e-17
0.000917513 0.0406667 5.19015e-17
0.000876785 0.0413353 4.96828e-17
0.00084391 0.0420044 5.42548e-17
0.000811035 0.0426735 5.88854e-17
0.000774213 0.0433333 5.2834e-17
0.000716864 0.044 5.6399e-17
0.00068669 0.0446684 5.52032e-17
0.000658239 0.045337 5.21744e-17
0.000629789 0.0460055 5.59183e-17
0.000601651 0.0466667 6.00603e-17
0.00055154 0.0473333 5.44886e-17
0.000526956 0.0480014 5.54686e-17
0.000502372 0.0486695 6.39718e-17
0.000477788 0.0493376 6.07776e-17
0.000453414 0.05 6.44705e-17
0.000409641 0.0506667 7.46742e-17
0.0003884 0.0513344 7.44338e-17
0.000367159 0.0520022 7.6463e-17
0.000345918 0.05267 8.7147e-17
0.000324817 0.0533333 8.82769e-17
0.000286477 0.054 9.29204e-17
0.000268021 0.0546675 9.47567e-17
0.000249564 0.055335 8.86069e-17
0.000231108 0.0560025 8.50666e-17
0.000212745 0.0566667 8.84635e-17
0.000178824 0.0573333 9.1018e-17
0.000162481 0.0580007 7.96666e-17
0.000146137 0.058668 7.99339e-17
0.000129793 0.0593353 8.29859e-17
0.000113514 0.06 8.58532e-17
9.08112e-05 0.060492 8.3241e-17
7.96488e-05 0.0609845 8.13041e-17
6.84864e-05 0.0614769 7.31222e-17
5.7324e-05 0.0619693 8.20688e-17
2.64049e-05 0.0633333 8.04472e-17
2.11239e-05 0.0634536 7.38041e-17
1.83859e-05 0.063574 7.18407e-17
1.56478e-05 0.0636943 6.54538e-17
1.29097e-05 0.0638147 6.46179e-17
0 0.0643822 6.69723e-17
0.05 0.00434783 5.94331e-18
0.0493333 0.00434891 1.08428e-18
0.0486667 0.00435303 -1.69813e-18
0.048 0.00435951 -4.30219e-18
0.0473334 0.00436767 4.08159e-18
0.0466667 0.00437874 3.11628e-18
0.046 0.00439383 4.47892e-18
0.0453334 0.00441056 8.6144e-18
0.0446668 0.00442891 1.9437e-18
0.0440002 0.00444889 3.44195e-18
0.0433333 0.00447277 -5.59374e-18
0.0426667 0.00450187 -8.89574e-19
0.042 0.00453141 1.07007e-21
0.0413334 0.00456163 -1.38892e-19
0.0406669 0.00459349 -3.7862e-18
0.04 0.00463096 -1.4671e-18
0.0393333 0.00467494 -3.96895e-18
0.0386666 0.00471836 -4.04125e-18
0.0379999 0.00476122 -2.79139e-18
0.0373333 0.00480636 -2.12653e-18
0.0366667 0.00485908 -1.88791e-18
0.036 0.0049197 -3.70792e-18
0.0353332 0.00497904 -8.18225e-18
0.0346663 0.00503707 -8.81701e-18
0.0339998 0.0050988 -3.67868e-18
0.0333333 0.00516952 -6.93889e-18
0.0326667 0.00524967 -1.80411e-18
0.0319998 0.00532812 1.24951e-18
0.0313327 0.00540483 -1.7709e-19
0.0306664 0.00548757 -3.24059e-18
0.03 0.00558044 -6.93889e-18
0.0293333 0.00568446 -7.35523e-18
0.0286664 0.00578671 -1.33916e-17
0.028 0.00589236 -1.2253e-17
0.0273348 0.00600532 -1.64144e-17
0.0266667 0.00612678 -1.66533e-17
0.0261302 0.00623475 -2.13111e-17
0.0255937 0.00634284 -2.4581e-17
0.0250584 0.00645633 -1.70976e-17
0.0245243 0.00657546 -2.31485e-17
0.0241357 0.00666667 -2.63162e-17
0.0239752 0.00670575 -1.77223e-17
0.0238149 0.00674541 -1.3292e-17
0.0236547 0.00678567 -1.58008e-17
0.0234947 0.00682653 -1.27587e-17
0.0233333 0.00686838 -2.25404e-17
0.0226667 0.00704621 -2.28365e-17
0.0220025 0.00723318 -2.8699e-17
0.0213415 0.00743097 -3.55068e-17
0.020684 0.00764007 -3.73349e-17
0.02 0.00787436 -3.82696e-17
0.0193333 0.00812796 -3.69422e-17
0.0186708 0.0083921 -3.41325e-17
0.0180128 0.00866737 -3.27422e-17
0.0173622 0.00895978 -3.50438e-17
0.0166667 0.00930102 -3.19189e-17
0.0164071 0.00944081 -2.68001e-17
0.0161486 0.0095826 -3.52194e-17
0.0158913 0.00972663 -3.61788e-17
0.0156357 0.00987363 -3.43654e-17
0.0154219 0.01 -3.05311e-17
0.0150042 0.0102525 -3.78906e-17
0.0145926 0.0105149 -3.60976e-17
0.0141875 0.0107872 -3.81986e-17
0.0137892 0.0110695 -3.57543e-17
0.0133333 0.0114128 -4.468e-17
0.0128583 0.0117969 -5.2139e-17
0.0123935 0.0121934 -5.56886e-17
0.0119394 0.0126021 -5.66592e-17
0.0114969 0.0130233 -5.63102e-17
0.011189 0.0133333 -5.00442e-17
0.0109512 0.0135825 -4.69743e-17
0.0107188 0.0138368 -5.08976e-17
0.010492 0.0140959 -5.50605e-17
0.0102706 0.0143598 -5.21707e-17
0.01 0.0146957 -5.7328e-17
0.00969836 0.0150899 -5.60135e-17
0.00940583 0.0154909 -5.51129e-17
0.00912237 0.0158984 -5.33557e-17
0.00884752 0.0163117 -4.45713e-17
0.00861955 0.0166667 -4.996e-17
0.00822897 0.0172929 -5.26493e-17
0.00786631 0.0179356 -5.42966e-17
0.0075303 0.0185927 -5.64244e-17
0.00721295 0.0192591 -5.18109e-17
0.00688397 0.02 -6.05194e-17
0.00684051 0.0201045 -5.92402e-17
0.00679775 0.0202093 -6.3881e-17
0.00675554 0.0203144 -6.10337e-17
0.00671379 0.0204196 -5.4197e-17
0.00666667 0.0205398 -5.41626e-17
0.00645078 0.0210985 -5.20731e-17
0.00624616 0.0216615 -5.90207e-17
0.00605217 0.0222281 -5.23712e-17
0.00586817 0.0227981 -5.76508e-17
0.00570131 0.0233333 -4.996e-17
0.00549208 0.024 -5.2458e-17
0.00530524 0.0246733 -4.97629e-17
0.00513969 0.0253521 -5.00192e-17
0.00498199 0.0260328 -4.48006e-17
0.00483126 0.0266667 -3.96263e-17
0.00466913 0.0273333 -4.00313e-17
0.00452793 0.0280047 -4.34761e-17
0.00440353 0.0286795 -4.35976e-17
0.00428329 0.0293549 -4.80645e-17
0.0041673 0.03 -4.71855e-17
0.00404225 0.0306667 -5.25284e-17
0.00393635 0.0313366 -4.73505e-17
0.00383495 0.0320073 -5.12212e-17
0.00373716 0.0326785 -4.74818e-17
0.00364522 0.0333333 -5.46428e-17
0.00358284 0.0337686 -4.58343e-17
0.00352575 0.0342045 -4.53602e-17
0.00347008 0.0346407 -4.5235e-17
0.0034158 0.035077 -3.96799e-17
0.00333333 0.035757 -3.747e-17
0.00331213 0.0359389 -3.61176e-17
0.00329115 0.0361209 -2.50503e-17
0.00327038 0.0363029 -2.92482e-17
0.00324983 0.0364849 -2.78946e-17
0.00322951 0.0366667 -2.498e-17
0.00315445 0.0373333 -2.47025e-17
0.00308346 0.0380004 -2.26909e-17
0.00301533 0.0386679 -2.41218e-17
0.00294995 0.0393355 -2.14551e-17
0.00288753 0.04 -2.498e-17
0.00282194 0.0406667 -2.60902e-17
[...]
POINT_DATA 40702
 FIELD attributes 1
U 3 40702 float
-6.34364e-19 	-1.61611e-21 	0
-0.0149691 	2.76882e-05 	0 -0.0149691 	2.76882e-05 	0 -0.0149691 	2.76882e-05 	0 -0.0149691 	2.76882e-05 	0 -0.0149691 	2.76882e-05 	0 -0.0149691 	2.76882e-05 	0 -0.0153003 	5.18071e-05 	0 -0.0155357 	8.89111e-05 	-4.36868e-25 -0.0154956 	0.00016209 	-2.08797e-24 -0.0152439 	0.00021824 	-3.7468e-24 -0.0149218 	0.000268157 	-5.41215e-24 -0.0152444 	0.00026103 	2.11631e-22 -0.0154256 	0.00027813 	3.56519e-22 -0.0153263 	0.000345574 	3.52106e-22 -0.0150941 	0.000419101 	2.10458e-22 -0.0148002 	0.000496406 	-7.15139e-24 -0.0151006 	0.000461904 	5.53398e-23 -0.0151915 	0.000470574 	9.00206e-23 -0.0150438 	0.000532537 	9.07336e-23 -0.014841 	0.000614053 	6.17956e-23 -0.0145862 	0.000716264 	1.89705e-24 -0.0148539 	0.000659177 	1.39203e-24 -0.0148251 	0.000674614 	-1.38017e-23 -0.0146428 	0.000732236 	-3.73798e-23 -0.0144609 	0.00080727 	-6.09226e-23 -0.0142531 	0.000931245 	-8.42094e-23 -0.0144802 	0.000856968 	-6.35877e-23 -0.0143126 	0.000896408 	-6.35806e-23 -0.0141099 	0.000951533 	-6.63247e-23 -0.0139234 	0.0010084 	-6.92799e-23 -0.013768 	0.00114433 	-9.1346e-23 -0.0138673 	0.00108801 	-1.71469e-22 -0.013643 	0.00114082 	-1.38495e-22 -0.013434 	0.0011957 	-1.04965e-22 -0.0132411 	0.00125274 	-7.08538e-23 -0.0131051 	0.00135854 	1.02305e-23 -0.0130605 	0.00134687 	-4.44708e-23 -0.0128786 	0.00139131 	-3.16698e-23 -0.012707 	0.00143747 	-1.82267e-23 -0.0125462 	0.0014854 	-4.11871e-24 -0.0124316 	0.00152352 	7.21321e-24 -0.0123954 	0.00153715 	1.12838e-23 -0.01236 	0.00155093 	1.54046e-23 -0.0123254 	0.00156484 	1.95761e-23 -0.0122916 	0.00157888 	2.37986e-23 -0.0122218 	0.00162364 	8.76624e-24 -0.0119875 	0.00165125 	6.53366e-24 -0.0117874 	0.00171061 	7.44303e-24 -0.011603 	0.0017732 	8.32276e-24 -0.0114351 	0.00183916 	9.17157e-24 -0.011082 	0.00209864 	4.96834e-23 -0.0107393 	0.00197981 	3.67957e-22 -0.010554 	0.00203268 	4.51399e-22 -0.0103944 	0.00210128 	5.21212e-22 -0.0101342 	0.0023003 	4.24553e-22 -0.00980378 	0.00263082 	1.75393e-22 -0.0095033 	0.00254039 	4.33676e-22 -0.00920123 	0.00244928 	6.91942e-22 -0.00889409 	0.00254899 	7.05825e-22 -0.00862901 	0.00285341 	4.79055e-22 -0.0084101 	0.00318604 	2.53445e-22 -0.00819072 	0.00313744 	4.52563e-22 -0.00791273 	0.00319511 	4.87351e-22 -0.00761836 	0.00332713 	4.22185e-22 -0.00735719 	0.00347843 	3.5372e-22 -0.00720697 	0.00359285 	3.05807e-22 -0.00716052 	0.0036315 	2.92421e-22 -0.00711547 	0.00367108 	2.78896e-22 -0.00707184 	0.00371158 	2.65232e-22 -0.00701501 	0.00376361 	2.63695e-22 -0.00695055 	0.00382422 	2.68165e-22 -0.00655421 	0.00389106 	1.78263e-22 -0.00629093 	0.00406714 	9.6523e-23 -0.00605709 	0.00427373 	1.88943e-23 -0.0057907 	0.00455193 	2.56283e-23 -0.00551536 	0.00494729 	3.15434e-23 -0.00545439 	0.00498856 	1.82017e-23 -0.00539652 	0.00503271 	4.85355e-24 -0.00534077 	0.00508065 	2.94998e-23 -0.00528763 	0.00513205 	7.58583e-23 -0.00524287 	0.00518084 	1.17452e-22 -0.00494101 	0.00536931 	1.18181e-22 -0.00467152 	0.00559665 	1.13096e-22 -0.00444144 	0.00583134 	1.02152e-22 -0.00424904 	0.00606783 	8.58288e-23 -0.00398581 	0.00649865 	5.18275e-23 -0.00396945 	0.00652621 	8.57549e-23 -0.00395346 	0.00655428 	1.19391e-22 -0.00393785 	0.00658284 	1.52737e-22 -0.00393805 	0.00660381 	8.16506e-23 -0.0039401 	0.00662363 	3.81605e-25 -0.00356309 	0.00679285 	-6.58183e-22 -0.00335505 	0.00714442 	-1.08883e-21 -0.00320441 	0.0075534 	-1.46127e-21 -0.00329302 	0.00784303 	-1.15774e-21 -0.00336569 	0.0080758 	-9.17865e-22 -0.00294839 	0.00842881 	-6.03869e-22 -0.00268691 	0.00873614 	-3.53169e-22 -0.00259607 	0.00893396 	-1.90477e-22 -0.00251463 	0.00915682 	-2.30173e-23 -0.00264614 	0.00951189 	1.57302e-23 -0.00248008 	0.00975561 	1.27531e-24 -0.00243182 	0.00986313 	0 -0.00239634 	0.0099618 	0 -0.00236242 	0.0100653 	0 -0.00231244 	0.0102323 	0 -0.00227176 	0.0103776 	0 -0.00223363 	0.0105314 	0 -0.00219795 	0.0106933 	0 -0.00216463 	0.0108629 	0 -0.00222506 	0.0108126 	0 -0.00198722 	0.0109111 	0 -0.00191616 	0.0112489 	0 -0.00185395 	0.01162 	0 -0.00186121 	0.0118416 	0 -0.00202065 	0.0116216 	0 -0.0017074 	0.0117691 	0 -0.00146858 	0.0120585 	0 -0.00142292 	0.0125661 	0 -0.00160758 	0.012354 	0 -0.00179299 	0.0120228 	0 -0.00145984 	0.0122973 	0 -0.00114456 	0.0127017 	0 -0.00111423 	0.0128114 	0 -0.00134264 	0.0124592 	0 -0.00155148 	0.0120092 	0 -0.00120289 	0.0124262 	0 -0.000874996 	0.0130146 	0 -0.000833226 	0.0126605 	0 -0.00108305 	0.012221 	0 -0.00131152 	0.0116497 	0 -0.000952302 	0.012221 	0 -0.0007127 	0.0125726 	0 -0.000688236 	0.012141 	0 -0.000830827 	0.0116157 	0 -0.00107496 	0.0109264 	0 -0.000710203 	0.0116598 	0 -0.000573311 	0.011668 	0 -0.000551814 	0.0112305 	0 -0.000598122 	0.0107186 	0 -0.000853495 	0.00992175 	0 -0.000488442 	0.0108203 	0 -0.000446112 	0.0104826 	0 -0.000427629 	0.0100483 	0 -0.000409146 	0.00961402 	0 -0.000656598 	0.00873522 	0 -0.000349134 	0.00948809 	0 -0.000333572 	0.00906517 	0 -0.00031801 	0.00864226 	0 -0.000302448 	0.00821934 	0 -0.000482197 	0.00734378 	0 -0.000248729 	0.00781945 	0 -0.000235832 	0.00741399 	0 -0.000222934 	0.00700853 	0 -0.000210037 	0.00660307 	0 -0.000333007 	0.00579046 	2.8637e-37 -0.000165558 	0.00598779 	0 -0.000154892 	0.00560203 	0 -0.000144226 	0.00521627 	0 -0.00013356 	0.00483051 	0 -0.000209982 	0.00412685 	2.89255e-40 -9.91483e-05 	0.0040483 	0 -9.00865e-05 	0.0036783 	0 -8.10248e-05 	0.0033083 	0 -7.19631e-05 	0.0029383 	0 -0.000109547 	0.00237419 	-9.99238e-38 -5.00694e-05 	0.00220882 	0 -4.39149e-05 	0.00193731 	0 -3.77604e-05 	0.00166581 	0 -3.16059e-05 	0.0013943 	0 -2.59803e-05 	0.0005917 	0 -1.25047e-05 	0.000549676 	0 -1.08838e-05 	0.000478428 	0 -9.26299e-06 	0.000407179 	0 -7.64215e-06 	0.000335931 	0 0 	0 	0
-0.0291062 	4.73123e-05 	0 -0.0293239 	0.000181165 	0 -0.0294305 	0.000286336 	-7.72337e-25 -0.0294085 	0.000359809 	-2.39803e-24 -0.0292225 	0.000485125 	-1.97725e-23 -0.028908 	0.000654359 	-5.0436e-23 -0.0290381 	0.000728699 	-2.49398e-22 -0.0290962 	0.000801077 	-3.72404e-22 -0.0290388 	0.000870241 	-3.79054e-22 -0.0287615 	0.00102993 	-2.58166e-22 -0.0283847 	0.00123925 	-6.94587e-23 -0.0284287 	0.00125957 	-9.64226e-23 -0.0284459 	0.00128966 	-1.17709e-22 -0.0283587 	0.00135555 	-1.17912e-22 -0.0279682 	0.00157146 	-7.0182e-23 -0.0275527 	0.00181745 	-1.39782e-23 -0.0275183 	0.00179214 	8.83124e-25 -0.0274809 	0.00176648 	1.57524e-23 -0.0273282 	0.00185086 	-3.06908e-24 -0.0268602 	0.00212413 	-3.16747e-23 -0.0264306 	0.0024033 	-6.00328e-23 -0.0263301 	0.00234309 	-2.20327e-22 -0.0262229 	0.00228186 	-3.80691e-22 -0.0259225 	0.0024007 	-3.69031e-22 -0.025461 	0.00270177 	-1.85801e-22 -0.0250409 	0.00301075 	-2.07967e-24 -0.0248889 	0.00292801 	1.45991e-22 -0.024729 	0.00284371 	2.94005e-22 -0.0242198 	0.00300733 	3.06298e-22 -0.0237827 	0.00331441 	2.25325e-22 -0.0233932 	0.00364986 	1.32231e-22 -0.0232058 	0.00355784 	2.64112e-22 -0.0228247 	0.00361861 	2.98238e-22 -0.0223269 	0.0037913 	2.63864e-22 -0.0218572 	0.00397345 	2.28341e-22 -0.0215144 	0.00433031 	8.82863e-23 -0.0213118 	0.0042939 	8.0916e-23 -0.0209211 	0.00443516 	1.10758e-22 -0.0205487 	0.00458362 	1.4109e-22 -0.0201953 	0.00473959 	1.71935e-22 -0.0199521 	0.00485909 	1.94821e-22 -0.0198563 	0.00491262 	1.96727e-22 -0.0197624 	0.00496697 	1.9857e-22 -0.0196705 	0.00502214 	2.00349e-22 -0.0195807 	0.00507814 	2.02064e-22 -0.0194268 	0.00518214 	2.10032e-22 -0.0189312 	0.00532936 	1.90279e-22 -0.0185167 	0.00554047 	1.94499e-22 -0.0181333 	0.00576658 	1.96411e-22 -0.017706 	0.00606525 	2.15309e-22 -0.0171399 	0.00652014 	2.73076e-22 -0.0166599 	0.00664161 	1.54851e-22 -0.0162099 	0.00678122 	3.57998e-23 -0.0156606 	0.00703867 	0 -0.0152144 	0.0074647 	3.87398e-23 -0.0147911 	0.00796527 	7.85529e-23 -0.0146502 	0.0080352 	3.36687e-23 -0.0145008 	0.0081183 	0 -0.0143167 	0.00823441 	0 -0.0141399 	0.00835575 	0 -0.0139974 	0.00846245 	0 -0.0136743 	0.00871703 	0 -0.0133744 	0.00899064 	0 -0.0130984 	0.00928361 	0 -0.0127625 	0.0096099 	0 -0.0123921 	0.0100195 	0 -0.0120483 	0.0102775 	0 -0.0117373 	0.0105651 	0 -0.0114123 	0.0108627 	0 -0.0111081 	0.0111853 	0 -0.010916 	0.0114382 	0 -0.0106965 	0.0117049 	0 -0.0104908 	0.0119859 	0 -0.0102827 	0.0122525 	-1.71381e-23 -0.0100753 	0.0125099 	-4.78681e-23 -0.00983204 	0.0128486 	-8.62771e-23 -0.00958691 	0.0131417 	-9.2138e-23 -0.00936344 	0.0134595 	-9.90072e-23 -0.00916626 	0.0137838 	-1.27888e-22 -0.0090155 	0.0140386 	-2.69012e-22 -0.00890028 	0.0142697 	-3.89177e-22 -0.00838809 	0.0148669 	-6.03924e-22 -0.00793574 	0.0155192 	-7.84923e-22 -0.00761431 	0.0159871 	-5.0666e-22 -0.00732753 	0.0165035 	-2.33108e-22 -0.00714344 	0.0171799 	1.1959e-22 -0.00707313 	0.017334 	2.16028e-22 -0.00701458 	0.0174582 	2.45574e-22 -0.00696632 	0.0175557 	2.16137e-22 -0.006919 	0.0176548 	1.87043e-22 -0.0068661 	0.0177694 	1.5424e-22 -0.00663373 	0.0182489 	1.43353e-22 -0.00642468 	0.0187675 	1.33768e-22 -0.00623761 	0.0193229 	1.25409e-22 -0.00616635 	0.0197796 	1.29441e-22 -0.00627553 	0.0199958 	1.53285e-22 -0.005721 	0.0206157 	9.65864e-23 -0.00519973 	0.0213216 	4.09083e-23 -0.00511459 	0.0220759 	1.78484e-22 -0.00533345 	0.0224286 	3.68284e-22 -0.00553034 	0.0227407 	5.43615e-22 -0.00496313 	0.0235994 	2.42836e-22 -0.00450345 	0.0244258 	0 -0.00440223 	0.0247302 	0 -0.00451198 	0.0250927 	2.9824e-25 -0.0047757 	0.0254606 	8.15742e-25 -0.0042011 	0.0265771 	4.13283e-26 -0.00407646 	0.0269634 	0 -0.00398198 	0.0273312 	0 -0.00389256 	0.0277228 	0 -0.00402967 	0.028117 	-1.26211e-22 -0.00376669 	0.0287641 	0 -0.00370446 	0.0290225 	0 -0.00364433 	0.0292922 	0 -0.00358625 	0.0295729 	0 -0.00349889 	0.0300268 	0 -0.00347721 	0.0301533 	0 -0.00345585 	0.0302815 	0 -0.0034348 	0.0304114 	0 -0.00341406 	0.030543 	0 -0.00343436 	0.030506 	0 -0.00329421 	0.0309543 	0 -0.00320685 	0.0314144 	0 -0.00312382 	0.0319014 	0 -0.00304496 	0.0324141 	0 -0.00315733 	0.0320926 	0 -0.00286222 	0.0327495 	0 -0.00277827 	0.0332652 	0 -0.00269829 	0.0338086 	0 -0.00262858 	0.034346 	0 -0.00287038 	0.0333678 	0 -0.00250533 	0.0342663 	0 -0.00236948 	0.0349041 	0 -0.00229211 	0.0354944 	0 -0.00233593 	0.035474 	0 -0.00258148 	0.0343433 	0 -0.00222125 	0.0354052 	0 -0.00198773 	0.0363126 	0 -0.00191353 	0.0369389 	0 -0.00205623 	0.036339 	0 -0.00230218 	0.0350618 	0 -0.00195144 	0.0362808 	0 -0.00164464 	0.037521 	7.54478e-38 -0.00157575 	0.0381722 	6.38112e-37 -0.00180164 	0.0369966 	1.20234e-36 -0.00204626 	0.0355812 	1.75969e-36 -0.00170875 	0.0369475 	1.13813e-36 -0.00137875 	0.0384485 	5.22828e-37 -0.00133306 	0.0389139 	7.75724e-40 -0.00158352 	0.037467 	1.65203e-39 -0.00182779 	0.0359223 	2.51783e-39 -0.00150593 	0.0374245 	1.56529e-39 -0.00119093 	0.0390651 	6.21939e-40 -0.00116175 	0.0393317 	-3.85816e-37 -0.0014167 	0.0377699 	-9.55821e-37 -0.00166576 	0.0361018 	-1.51943e-36 -0.00136028 	0.0377303 	-9.05506e-37 -0.00106117 	0.0395002 	-2.97246e-37 -0.00105034 	0.0396009 	0 -0.00132151 	0.0379271 	0 -0.00158655 	0.0361335 	0 -0.00129645 	0.0378861 	0 -0.00101259 	0.0397841 	0 -0.00101678 	0.0397238 	0 -0.00132475 	0.0379288 	0 -0.00162531 	0.0359892 	0 -0.00134865 	0.0378813 	0 -0.00107878 	0.0399267 	0 -0.0010828 	0.0396584 	0 -0.00145987 	0.037707 	0 -0.00182605 	0.0355653 	0 -0.00156252 	0.0376495 	0 -0.00131023 	0.0398659 	0 -0.00128855 	0.0392063 	0 -0.00175654 	0.0370705 	0 -0.00222908 	0.0346036 	0 -0.00198601 	0.0370092 	0 -0.00179617 	0.0387386 	0 -0.00174872 	0.0377151 	0 -0.00218986 	0.0354953 	0 -0.0028129 	0.0324588 	0 -0.00261803 	0.0354748 	0 -0.00246946 	0.0360869 	0 -0.0023521 	0.0343718 	0 -0.00254896 	0.0319652 	0 -0.00334609 	0.0279231 	0 -0.00327143 	0.032166 	0 -0.00299409 	0.0298695 	0 -0.00269442 	0.02688 	0 -0.00239476 	0.0238905 	0 -0.00303256 	0.0185974 	0 -0.00293212 	0.0211128 	0 -0.00230558 	0.0166013 	0 -0.00167903 	0.0120899 	0 -0.00105248 	0.00757842 	0 0 	0 	0
-0.0422924 	5.77203e-05 	0 -0.0422607 	0.00026506 	-2.23986e-23 -0.0421783 	0.000493248 	-5.11478e-23 -0.0421162 	0.000721951 	-8.00505e-23 -0.0420744 	0.000951164 	-1.09107e-22 -0.0420094 	0.00117134 	-1.3859e-22 -0.0418632 	0.00136296 	-1.72184e-22 -0.04168 	0.00157712 	-1.74883e-22 -0.0415161 	0.00179279 	-1.76718e-22 -0.0413718 	0.00200996 	-1.7768e-22 -0.0413285 	0.00208604 	-1.77708e-22 -0.0413144 	0.0021149 	-1.78326e-22 -0.0413006 	0.00214378 	-1.78938e-22 -0.0412872 	0.00217269 	-1.79544e-22 -0.0412741 	0.00220162 	-1.80143e-22 -0.0412512 	0.00223556 	-1.81706e-22 -0.0409784 	0.00243885 	-1.50442e-22 -0.0407207 	0.0026436 	-1.19222e-22 -0.0404829 	0.00285098 	-8.77717e-23 -0.0402655 	0.00306102 	-5.60875e-23 -0.0399559 	0.00333239 	-2.98578e-23 -0.0396474 	0.00352432 	-3.20621e-23 -0.0393297 	0.00372373 	-2.41257e-23 -0.039032 	0.00392678 	-1.61924e-23 -0.038755 	0.00413355 	-8.26245e-24 -0.0382382 	0.0044883 	2.54114e-23 -0.0378836 	0.00464096 	1.75179e-22 -0.0375288 	0.00484166 	2.1287e-22 -0.0371948 	0.00504718 	2.51613e-22 -0.0367823 	0.00531656 	2.33741e-22 -0.0361512 	0.00573862 	7.61617e-23 -0.0357399 	0.00586884 	4.73606e-23 -0.0353518 	0.00602171 	2.79827e-23 -0.0350053 	0.00623783 	3.94598e-23 -0.0343614 	0.00666264 	7.02384e-23 -0.0337441 	0.00711246 	1.01171e-22 -0.0333079 	0.00724123 	5.49821e-23 -0.0328892 	0.00737663 	8.60284e-24 -0.032239 	0.00768716 	0 -0.0316353 	0.00814433 	1.56956e-23 -0.0310646 	0.00862993 	3.13208e-23 -0.030636 	0.00877628 	4.70032e-24 -0.0299986 	0.00909461 	0 -0.0293484 	0.0094665 	0 -0.0287399 	0.00985989 	0 -0.028203 	0.010255 	0 -0.0281936 	0.0102634 	0 -0.0281843 	0.0102719 	0 -0.0281749 	0.0102803 	0 -0.0281639 	0.0102897 	0 -0.0281495 	0.0103009 	0 -0.0274986 	0.0106895 	0 -0.0268944 	0.0111084 	0 -0.0263343 	0.0115549 	0 -0.0257209 	0.0120779 	0 -0.0249525 	0.0127599 	0 -0.0243261 	0.013147 	0 -0.0237296 	0.0135767 	0 -0.0229995 	0.0141146 	0 -0.022335 	0.0146997 	0 -0.0216604 	0.0154165 	0 -0.0216582 	0.0154196 	0 -0.0216559 	0.0154227 	0 -0.0216536 	0.0154258 	0 -0.0216505 	0.0154289 	0 -0.0216474 	0.0154321 	0 -0.0208939 	0.0160481 	0 -0.02021 	0.0167283 	0 -0.0195795 	0.0174662 	1.69508e-25 -0.0188799 	0.0182214 	1.83234e-24 -0.0180588 	0.0193019 	4.02508e-24 -0.0179706 	0.01942 	4.035e-24 -0.0178843 	0.0195398 	4.04655e-24 -0.0177947 	0.0196524 	-1.40065e-24 -0.0176997 	0.019754 	-1.44968e-23 -0.0176112 	0.0198523 	-2.69419e-23 -0.0168418 	0.0206795 	-1.67225e-23 -0.0161509 	0.0215959 	-3.00178e-24 -0.0155061 	0.0224456 	-4.14842e-23 -0.0149506 	0.0233079 	-1.24577e-22 -0.0145706 	0.0241592 	-2.20621e-22 -0.014474 	0.0243607 	-2.9139e-22 -0.0143791 	0.0245583 	-3.46119e-22 -0.0142835 	0.0247117 	-2.78484e-22 -0.0141898 	0.0248671 	-2.11323e-22 -0.0140879 	0.0250416 	-1.37408e-22 -0.0136521 	0.0257419 	2.00584e-22 -0.013257 	0.0264931 	5.27597e-22 -0.0129008 	0.0272924 	8.43954e-22 -0.0126677 	0.0278676 	5.87517e-22 -0.0125054 	0.0283339 	2.1245e-22 -0.0118713 	0.0293827 	-1.00144e-22 -0.01129 	0.0305133 	-4.16993e-22 -0.01092 	0.0312015 	-3.50121e-23 -0.0106991 	0.0319552 	7.19864e-22 -0.0106084 	0.0326861 	1.66479e-21 -0.0102621 	0.0335325 	2.32199e-21 -0.0100263 	0.0341033 	2.07869e-21 -0.00982909 	0.0346061 	1.58077e-21 -0.0096417 	0.0351272 	1.09338e-21 -0.00938157 	0.0359145 	3.9586e-22 -0.00929808 	0.0361962 	2.96718e-22 -0.00921682 	0.0364823 	1.97815e-22 -0.00913773 	0.0367727 	9.91469e-23 -0.00906373 	0.0370619 	2.83298e-24 -0.0091246 	0.0371118 	2.9923e-24 -0.00863494 	0.0380176 	-9.0317e-23 -0.00837038 	0.0389837 	-3.00503e-22 -0.00812728 	0.0399958 	-5.14604e-22 -0.00802715 	0.0408013 	-7.32112e-22 -0.00826313 	0.0409531 	-9.4444e-22 -0.00760278 	0.0420897 	-6.20225e-22 -0.00702801 	0.043304 	-1.42912e-22 -0.0068481 	0.0444495 	1.25089e-21 -0.00713993 	0.0446114 	2.35637e-21 -0.00741524 	0.0447394 	3.42421e-21 -0.00674979 	0.0461007 	1.91327e-21 -0.00611079 	0.0475633 	4.23011e-22 -0.00595573 	0.0481911 	6.8757e-25 -0.00627738 	0.0483174 	3.59533e-24 -0.00658312 	0.0484048 	6.42381e-24 -0.00591735 	0.0499844 	2.67723e-24 -0.00542097 	0.0512876 	0 -0.00531643 	0.0516758 	0 -0.00545348 	0.0518837 	-3.01673e-21 -0.00577952 	0.0519109 	-8.43405e-21 -0.00511876 	0.0536954 	-1.64035e-21 -0.00488211 	0.054437 	0 -0.00478105 	0.0548512 	0 -0.00468344 	0.0552849 	-2.07175e-26 -0.00502046 	0.0552316 	-1.06564e-23 -0.00445954 	0.0569269 	0 -0.00436064 	0.0573382 	0 -0.00426406 	0.0577703 	0 -0.00416977 	0.0582227 	0 -0.00431891 	0.0583252 	2.50372e-21 -0.00396244 	0.0595393 	3.25249e-37 -0.00387087 	0.0599612 	9.52451e-37 -0.00378127 	0.0604032 	1.57856e-36 -0.0036936 	0.0608647 	2.2036e-36 -0.00369428 	0.0611792 	2.93879e-36 -0.00354755 	0.0617696 	3.19772e-36 -0.00349652 	0.0620371 	2.67358e-36 -0.00344613 	0.0623121 	2.15222e-36 -0.00339638 	0.0625945 	1.6336e-36 -0.00333087 	0.0629808 	9.4544e-37 -0.00330648 	0.0631322 	7.47275e-37 -0.00328226 	0.0632853 	5.49202e-37 -0.00325818 	0.0634402 	3.5122e-37 -0.00323427 	0.0635969 	1.53328e-37 -0.00323531 	0.0635848 	4.45673e-39 -0.0031505 	0.0640924 	-5.04684e-37 -0.00309005 	0.0645247 	-1.06369e-36 -0.00303078 	0.0649721 	-1.62347e-36 -0.00297267 	0.065434 	-2.18401e-36 -0.00300892 	0.065212 	-2.74461e-36 -0.00288531 	0.0660355 	-2.13068e-36 -0.00285718 	0.0664776 	-1.51812e-36 -0.00282971 	0.0669287 	-9.05957e-37 -0.00280289 	0.0673887 	-2.9419e-37 -0.00292562 	0.0666307 	0 -0.00277131 	0.0678067 	0 -0.0027961 	0.068276 	0 -0.00282081 	0.0687443 	0 -0.00284544 	0.0692114 	0 -0.00306536 	0.0678763 	0 -0.00287171 	0.0694611 	0 -0.00298204 	0.0699921 	0 -0.00309094 	0.0705047 	0 -0.00319845 	0.0709994 	0 -0.00354029 	0.068953 	0 -0.00327676 	0.0710371 	0 -0.00351421 	0.0717142 	0 -0.00375662 	0.0723194 	0 -0.00403079 	0.0723917 	0 -0.00449426 	0.0697676 	0 -0.00425119 	0.0721733 	0 -0.00449629 	0.0735021 	0 -0.0049453 	0.0742828 	0 -0.00546225 	0.0732791 	0 -0.00606413 	0.0699757 	0 -0.00586926 	0.0729917 	0 -0.00597843 	0.0754908 	0 -0.00673446 	0.0765956 	0 -0.00750339 	0.0733401 	0 -0.00824122 	0.0687729 	0 -0.00816655 	0.0730158 	0 -0.00811365 	0.0774447 	0 -0.00890839 	0.0775337 	0 -0.00974301 	0.0711796 	0 -0.01048 	0.0642697 	0 -0.0106764 	0.0710406 	0 -0.0109284 	0.0781634 	0 -0.0103 	0.0741654 	0 -0.0107487 	0.0639973 	0 -0.011027 	0.0529362 	0 -0.0117397 	0.0651167 	0 -0.0111292 	0.0646442 	0 -0.00962315 	0.0558962 	0 -0.00811709 	0.0471482 	0 -0.00681352 	0.0295876 	0 -0.0074776 	0.0437719 	0 -0.00607484 	0.0355605 	0 -0.00467209 	0.0273492 	0 -0.00326933 	0.0191378 	0 0 	0 	0