# vtk DataFile Version 2.0
track0
ASCII
DATASET POLYDATA
POINTS 40759 float
0.05 8.57988e-20 2.57396e-18
0.05 0.00217391 -1.05592e-17
0.05 0.00217391 -1.05592e-17
0.05 0.00217391 -1.05592e-17
0.05 0.00217391 -1.05592e-17
0.05 0.00217391 -1.05592e-17
0.05 0.00217391 -1.38778e-17
0.0493333 0.00217516 -8.74301e-18
0.0486667 0.00217743 -7.49401e-18
0.048 0.00218125 -8.89217e-18
0.0473334 0.00218823 -6.4197e-18
0.0466667 0.00219778 -6.93889e-18
0.046 0.00220977 -1.08247e-17
0.0453333 0.0022212 -9.57566e-18
0.0446667 0.00223322 -1.12343e-17
0.0440001 0.00224826 -1.55547e-17
0.0433333 0.00226677 -1.94289e-17
0.0426667 0.00228914 -1.01308e-17
0.0419999 0.00230953 -1.13108e-17
0.0413332 0.00233019 -8.44372e-18
0.0406666 0.00235379 -7.38929e-18
0.04 0.00238137 -1.94289e-17
0.0393333 0.00241411 -1.77636e-17
0.0386665 0.0024437 -2.27593e-17
0.0379997 0.00247404 -2.28032e-17
0.0373331 0.00250738 -1.88087e-17
0.0366667 0.00254458 -1.80411e-17
0.036 0.00258813 -1.91513e-17
0.0353331 0.0026276 -1.96345e-17
0.0346663 0.00266936 -2.1071e-17
0.0339997 0.00271431 -2.42032e-17
0.0333333 0.00276256 -3.19189e-17
0.0326667 0.00281797 -3.4972e-17
0.0319998 0.00287029 -3.14328e-17
0.0313331 0.00292603 -3.24588e-17
0.0306668 0.00298533 -3.45105e-17
0.03 0.00304841 -2.91434e-17
0.0294502 0.00310539 -2.82278e-17
0.0289004 0.00316208 -2.93939e-17
0.0283509 0.00322144 -3.0799e-17
0.0278017 0.00328356 -2.59482e-17
0.0273813 0.00333333 -3.84604e-17
0.0272384 0.00335085 -4.02052e-17
0.0270955 0.00336857 -3.63989e-17
0.0269526 0.00338649 -3.95313e-17
0.0268097 0.00340463 -4.12759e-17
0.0266667 0.003423 -4.14094e-17
0.026 0.00351156 -3.42493e-17
0.0253338 0.00360332 -3.12445e-17
0.0246682 0.0036999 -3.27542e-17
0.0240034 0.00380148 -3.09531e-17
0.0233333 0.00390924 -3.01024e-17
0.0226667 0.00403547 -3.30882e-17
0.0219994 0.00415847 -2.91297e-17
0.0213331 0.00428678 -2.71984e-17
0.0206681 0.00442121 -2.32531e-17
0.02 0.00457282 -1.06503e-17
0.0193333 0.0047517 -8.27428e-18
0.0186665 0.00492993 -1.4392e-17
0.0179995 0.00510747 -1.60379e-17
0.0173359 0.00529761 -2.00733e-17
0.0166667 0.00551889 -2.498e-17
0.0160607 0.00574844 -1.2364e-17
0.0154555 0.00598023 -2.28014e-17
0.0148546 0.00622285 -2.07326e-17
0.0142607 0.0064822 -2.40603e-17
0.0138706 0.00666667 -3.42014e-17
0.0137631 0.00672023 -3.6798e-17
0.013656 0.00677454 -3.80075e-17
0.0135494 0.00682959 -3.6442e-17
0.013443 0.00688538 -3.7115e-17
0.0133333 0.00694424 -3.51567e-17
0.0126667 0.00731101 -3.64614e-17
0.0120124 0.00769943 -3.50266e-17
0.0113734 0.00811253 -3.14928e-17
0.0107517 0.0085512 -2.32215e-17
0.01 0.00914208 -2.498e-17
0.00980873 0.00931367 -2.03389e-17
0.00961913 0.00948709 -2.12531e-17
0.00943123 0.00966235 -2.64008e-17
0.00924507 0.00983947 -2.20086e-17
0.0090797 0.01 -1.94289e-17
0.0085971 0.010477 -2.10129e-17
0.00813767 0.0109764 -2.54688e-17
0.00770292 0.0114973 -2.38652e-17
0.00729184 0.0120372 -2.24746e-17
0.00666667 0.0129302 -2.498e-17
0.00661723 0.0130108 -2.78379e-17
0.0065681 0.0130916 -2.65319e-17
0.00651926 0.0131726 -2.24499e-17
0.00647072 0.0132538 -2.32659e-17
0.00642331 0.0133333 -2.498e-17
0.00602686 0.014 -1.98452e-17
0.00566664 0.0146869 -2.61934e-17
0.00533701 0.015389 -2.5179e-17
0.00503417 0.0161031 -2.76702e-17
0.00479761 0.0166667 -2.56591e-17
0.00451984 0.0173333 -2.09753e-17
0.00428143 0.0180151 -1.75107e-17
0.00406917 0.0187054 -1.48198e-17
0.00386769 0.0193989 -2.17497e-17
0.00370267 0.02 -3.00582e-17
0.0036288 0.0202655 -2.79324e-17
0.00356091 0.0205327 -3.45333e-17
0.00349495 0.0208003 -3.2937e-17
0.00343051 0.0210683 -3.09956e-17
0.00333333 0.0214825 -2.78238e-17
0.00324973 0.0218527 -3.06704e-17
0.00316861 0.0222234 -2.80299e-17
0.0030899 0.0225946 -2.67732e-17
0.00301352 0.0229664 -1.99615e-17
0.0029404 0.0233333 -1.80411e-17
0.00280325 0.024 -7.35523e-18
0.0026813 0.0246696 -9.16425e-18
0.00256701 0.0253406 -6.41239e-18
0.00245976 0.0260127 -5.65162e-18
0.00235699 0.0266667 -1.38778e-17
0.0022411 0.0273333 2.77556e-19
0.00214396 0.028003 1.95036e-18
0.00206212 0.0286747 5.51579e-18
0.00198596 0.0293471 7.79495e-18
0.00190099 0.03 0
0.00180157 0.0306667 4.44089e-18
0.0017221 0.031336 4.36705e-18
0.00166159 0.0320073 2.98746e-18
0.00160317 0.0326788 -1.19572e-18
0.00153262 0.0333333 2.90062e-18
0.00144649 0.034 9.31242e-18
0.00138169 0.0346691 5.62301e-18
0.00133657 0.0353398 5.83827e-18
0.00129239 0.0360105 1.21618e-17
0.00123422 0.0366667 1.87613e-17
0.00115914 0.0373333 1.54169e-17
0.00110699 0.0380022 1.94625e-17
0.001069 0.038672 1.67833e-17
0.00103102 0.0393418 1.17231e-17
0.000983901 0.04 1.01576e-17
0.000918278 0.0406667 1.37363e-17
0.000877506 0.0413353 1.35994e-17
0.000844608 0.0420044 1.29684e-17
0.000811711 0.0426735 1.93348e-17
0.000774846 0.0433333 1.11996e-17
0.000717451 0.044 6.43799e-18
0.000687227 0.0446684 8.71174e-18
0.000658748 0.045337 2.90827e-18
0.000630269 0.0460055 5.2644e-18
0.000602103 0.0466667 5.93619e-18
0.000551935 0.0473333 1.01657e-17
0.000527316 0.0480014 6.2019e-18
0.000502698 0.0486695 -1.94766e-18
0.000478079 0.0493376 3.87863e-18
0.000453671 0.05 -2.14329e-18
0.000409831 0.0506667 4.59105e-18
0.00038855 0.0513344 1.57521e-18
0.00036727 0.0520022 -1.94656e-18
0.000345989 0.05267 3.18639e-18
0.000324848 0.0533333 3.62236e-18
0.000286433 0.054 1.69396e-17
0.000267932 0.0546675 8.71456e-18
0.000249432 0.055335 7.76873e-18
0.000230931 0.0560025 7.35098e-18
0.000212524 0.0566667 3.80941e-18
0.000178519 0.0573333 -3.69735e-18
0.000162126 0.0580007 -3.59956e-18
0.000145733 0.058668 -1.94511e-18
0.00012934 0.0593353 -6.52588e-18
0.000113012 0.06 -4.35154e-18
9.04098e-05 0.0604884 -4.54137e-18
7.92904e-05 0.0609772 -4.05577e-18
6.8171e-05 0.061466 -5.99879e-18
5.70516e-05 0.0619548 -1.19291e-17
2.56931e-05 0.0633333 -4.20612e-18
2.05545e-05 0.06345 -3.65638e-18
1.78891e-05 0.0635667 -3.3506e-19
1.52238e-05 0.0636834 -3.60569e-18
1.25584e-05 0.0638001 4.09522e-19
0 0.0643501 -3.16399e-18
0.05 0.00434783 5.94331e-18
0.0493333 0.00434893 3.90359e-19
0.0486667 0.00435307 -4.47375e-18
0.048 0.00435957 -6.38385e-18
0.0473334 0.00436774 9.59195e-19
0.0466667 0.00437882 -3.82275e-18
0.046 0.00439392 -5.23569e-18
0.0453334 0.00441067 -1.10023e-18
0.0446668 0.00442903 -5.68909e-18
0.0440002 0.00444901 -9.7407e-18
0.0433333 0.0044729 -1.25317e-17
0.0426667 0.00450202 -1.19908e-17
0.042 0.00453157 -9.36541e-18
0.0413334 0.00456179 -6.3839e-18
0.0406669 0.00459366 -1.14173e-17
0.04 0.00463114 -9.44711e-18
0.0393333 0.00467512 -8.47952e-18
0.0386666 0.00471854 -1.06335e-17
0.0379999 0.0047614 -1.1031e-17
0.0373333 0.00480655 -3.51399e-18
0.0366667 0.00485927 2.96738e-18
0.036 0.0049199 -4.05685e-18
0.0353332 0.00497924 -9.13836e-18
0.0346663 0.00503727 -9.50955e-18
0.0339998 0.005099 -9.31517e-18
0.0333333 0.00516972 -6.93889e-18
0.0326667 0.00524988 -8.74301e-18
0.0319998 0.00532833 -7.42411e-18
0.0313327 0.00540504 -1.04992e-17
0.0306664 0.00548778 -8.4451e-18
0.03 0.00558065 -6.93889e-18
0.0293333 0.00568466 -7.35523e-18
0.0286664 0.00578691 -1.40855e-17
0.028 0.00589257 -1.29465e-17
0.0273348 0.00600553 -1.84578e-17
0.0266667 0.00612698 -1.94289e-17
0.0261304 0.00623492 -1.85358e-17
0.0255941 0.00634296 -1.48672e-17
0.025059 0.0064564 -2.39507e-17
0.0245251 0.00657549 -2.4535e-17
0.0241366 0.00666667 -2.4236e-17
0.0239759 0.00670579 -2.6744e-17
0.0238154 0.00674549 -2.71706e-17
0.0236551 0.00678579 -2.96791e-17
0.0234949 0.0068267 -4.05146e-17
0.0233333 0.00686859 -2.67041e-17
0.0226667 0.00704642 -3.39391e-17
0.0220025 0.00723339 -3.84138e-17
0.0213415 0.00743118 -4.00171e-17
0.020684 0.00764029 -3.94162e-17
0.02 0.00787458 -2.95954e-17
0.0193333 0.0081282 -3.486e-17
0.0186708 0.00839234 -3.30917e-17
0.0180128 0.00866763 -3.09094e-17
0.0173622 0.00896005 -2.94932e-17
0.0166667 0.00930131 -3.05311e-17
0.0164072 0.00944104 -2.95755e-17
0.0161488 0.00958277 -2.96687e-17
0.0158917 0.00972674 -3.54855e-17
0.0156362 0.00987368 -3.92234e-17
0.0154225 0.01 -3.60822e-17
0.0150046 0.0102526 -4.20541e-17
0.0145929 0.0105151 -4.44249e-17
0.0141877 0.0107875 -4.72196e-17
0.0137894 0.0110698 -4.54684e-17
0.0133333 0.0114133 -3.91297e-17
0.0128585 0.0117973 -4.65875e-17
0.0123939 0.0121937 -4.18101e-17
0.01194 0.0126023 -4.41702e-17
0.0114977 0.0130234 -4.10432e-17
0.0111899 0.0133333 -4.10327e-17
0.0109519 0.0135827 -4.14304e-17
0.0107194 0.0138372 -3.9107e-17
0.0104924 0.0140966 -4.63864e-17
0.0102708 0.0143607 -4.66185e-17
0.01 0.014697 -4.83204e-17
0.00969865 0.0150909 -4.76863e-17
0.00940639 0.0154917 -3.98464e-17
0.00912319 0.0158988 -4.29487e-17
0.00884858 0.0163119 -4.35323e-17
0.00862077 0.0166667 -3.60822e-17
0.00822995 0.0172934 -4.37998e-17
0.00786708 0.0179366 -4.71847e-17
0.0075309 0.0185942 -4.5145e-17
0.00721339 0.0192611 -4.34792e-17
0.00688541 0.02 -3.69236e-17
0.00684166 0.0201052 -3.84207e-17
0.00679862 0.0202107 -3.99409e-17
0.00675614 0.0203165 -4.28166e-17
0.00671412 0.0204224 -4.13559e-17
0.00666667 0.0205435 -4.02757e-17
0.00645117 0.0211015 -4.58208e-17
0.00624689 0.0216636 -4.09552e-17
0.00605321 0.0222295 -3.84916e-17
0.00586948 0.0227988 -4.72447e-17
0.00570284 0.0233333 -5.27356e-17
0.00549363 0.024 -4.34375e-17
0.00530679 0.0246733 -4.14362e-17
0.00514124 0.0253521 -4.25625e-17
0.00498353 0.0260328 -3.99408e-17
0.00483279 0.0266667 -3.68469e-17
0.00467065 0.0273333 -2.75375e-17
0.00452942 0.0280047 -2.8213e-17
0.00440502 0.0286795 -2.97198e-17
0.00428478 0.029355 -3.41842e-17
0.00416876 0.03 -3.40041e-17
0.00404367 0.0306667 -3.2408e-17
0.00393773 0.0313366 -3.27811e-17
0.00383632 0.0320073 -3.04045e-17
0.0037385 0.0326785 -2.52773e-17
0.00364654 0.0333333 -3.52161e-17
0.0035839 0.0337702 -2.86596e-17
0.00352658 0.0342078 -2.93967e-17
0.0034707 0.0346455 -3.41257e-17
0.00341621 0.0350835 -3.37927e-17
0.00333333 0.0357669 -3.747e-17
0.00331237 0.0359468 -4.72194e-17
0.00329161 0.0361268 -4.58662e-17
0.00327106 0.0363068 -4.03493e-17
0.00325072 0.0364869 -3.89954e-17
0.00323062 0.0366667 -4.996e-17
0.00315554 0.0373333 -5.03764e-17
0.00308451 0.0380004 -4.59362e-17
0.00301634 0.0386679 -4.49368e-17
[...]
POINT_DATA 40759
 FIELD attributes 1
U 3 40759 float
-6.3314e-19 	-1.60624e-21 	0
-0.0149388 	2.79537e-05 	0 -0.0149388 	2.79537e-05 	0 -0.0149388 	2.79537e-05 	0 -0.0149388 	2.79537e-05 	0 -0.0149388 	2.79537e-05 	0 -0.0149388 	2.79537e-05 	0 -0.0152697 	5.19551e-05 	0 -0.0155048 	8.89257e-05 	-4.41849e-25 -0.0154647 	0.00016192 	-2.11156e-24 -0.0152132 	0.000217972 	-3.78907e-24 -0.0148914 	0.000267821 	-5.4732e-24 -0.0152137 	0.000260659 	2.13973e-22 -0.0153947 	0.000277687 	3.60441e-22 -0.0152955 	0.00034496 	3.55963e-22 -0.0150635 	0.000418336 	2.12756e-22 -0.0147698 	0.000495502 	-7.27696e-24 -0.01507 	0.000461039 	5.76453e-23 -0.0151608 	0.000469674 	9.39002e-23 -0.0150134 	0.000531482 	9.51578e-23 -0.0148108 	0.000612813 	6.56225e-23 -0.0145561 	0.000714818 	3.91781e-24 -0.0148237 	0.000657836 	2.87488e-24 -0.0147951 	0.000673237 	-1.21116e-23 -0.014613 	0.000730718 	-3.50503e-23 -0.0144314 	0.00080557 	-5.7811e-23 -0.0142235 	0.00092928 	-7.99073e-23 -0.0144507 	0.000855159 	-6.03398e-23 -0.0142834 	0.000894519 	-6.08921e-23 -0.0140811 	0.000949515 	-6.4124e-23 -0.013895 	0.00100625 	-6.75588e-23 -0.0137394 	0.00114187 	-8.91281e-23 -0.0138389 	0.00108569 	-1.68919e-22 -0.013615 	0.00113838 	-1.36539e-22 -0.0134065 	0.00119313 	-1.03605e-22 -0.013214 	0.00125003 	-7.00932e-23 -0.0130781 	0.00135559 	1.01605e-23 -0.0130337 	0.00134395 	-4.41979e-23 -0.0128521 	0.0013883 	-3.14756e-23 -0.0126809 	0.00143435 	-1.81153e-23 -0.0125205 	0.00148217 	-4.09433e-24 -0.0124061 	0.0015202 	7.16819e-24 -0.01237 	0.00153381 	1.12144e-23 -0.0123346 	0.00154756 	1.53107e-23 -0.0123001 	0.00156144 	1.94573e-23 -0.0122664 	0.00157545 	2.36545e-23 -0.0121966 	0.00162011 	8.71363e-24 -0.0119629 	0.00164766 	6.49831e-24 -0.0117631 	0.00170689 	7.40651e-24 -0.0115792 	0.00176935 	8.28523e-24 -0.0114116 	0.00183516 	9.13317e-24 -0.011059 	0.00209402 	4.9471e-23 -0.0107173 	0.00197549 	3.66399e-22 -0.0105324 	0.00202827 	4.49448e-22 -0.010373 	0.00209672 	5.18959e-22 -0.0101133 	0.00229525 	4.22762e-22 -0.00978327 	0.00262499 	1.7468e-22 -0.00948363 	0.0025348 	4.32022e-22 -0.00918238 	0.00244392 	6.89346e-22 -0.00887596 	0.00254343 	7.03197e-22 -0.00861115 	0.00284715 	4.77281e-22 -0.00839238 	0.00317901 	2.52524e-22 -0.00817352 	0.00313054 	4.51055e-22 -0.00789601 	0.00318815 	4.85732e-22 -0.00760207 	0.00331994 	4.20782e-22 -0.00734127 	0.00347099 	3.52541e-22 -0.00719131 	0.00358519 	3.04795e-22 -0.007145 	0.00362371 	2.91478e-22 -0.0071001 	0.00366315 	2.78022e-22 -0.00705662 	0.00370351 	2.64428e-22 -0.00699996 	0.00375534 	2.62901e-22 -0.0069357 	0.00381572 	2.6735e-22 -0.00654032 	0.00388262 	1.77753e-22 -0.00627748 	0.00405835 	9.62775e-23 -0.00604405 	0.00426452 	1.88552e-23 -0.00577803 	0.00454211 	2.5569e-23 -0.00550299 	0.00493663 	3.1466e-23 -0.0054421 	0.00497787 	1.81576e-23 -0.00538432 	0.00502201 	4.84284e-24 -0.00532863 	0.0050699 	2.94069e-23 -0.00527555 	0.00512124 	7.56273e-23 -0.00523084 	0.00516997 	1.17092e-22 -0.00492962 	0.00535814 	1.17807e-22 -0.0046607 	0.00558508 	1.12726e-22 -0.00443111 	0.00581931 	1.01805e-22 -0.00423912 	0.0060553 	8.55237e-23 -0.00397638 	0.00648527 	5.16109e-23 -0.00396007 	0.00651278 	8.53833e-23 -0.00394413 	0.00654078 	1.18866e-22 -0.00392856 	0.00656927 	1.5206e-22 -0.00392875 	0.00659019 	8.13105e-23 -0.00393079 	0.00660994 	3.79289e-25 -0.00355487 	0.00677905 	-6.55598e-22 -0.00334735 	0.00712987 	-1.08459e-21 -0.00319694 	0.00753802 	-1.45598e-21 -0.00328533 	0.00782686 	-1.1535e-21 -0.00335783 	0.00805903 	-9.14414e-22 -0.00294159 	0.00841123 	-6.01672e-22 -0.00268055 	0.00871807 	-3.51754e-22 -0.00258996 	0.00891538 	-1.89566e-22 -0.00250875 	0.00913764 	-2.26294e-23 -0.00264043 	0.00949212 	1.54488e-23 -0.00247434 	0.00973587 	1.25163e-24 -0.00242609 	0.00984341 	0 -0.00239063 	0.00994211 	0 -0.00235673 	0.0100457 	0 -0.00230674 	0.0102128 	0 -0.00226631 	0.0103576 	0 -0.0022284 	0.0105106 	0 -0.00219292 	0.0106717 	0 -0.00215979 	0.0108405 	0 -0.00221989 	0.0107904 	0 -0.00198314 	0.0108892 	0 -0.0019123 	0.0112262 	0 -0.00185027 	0.0115962 	0 -0.00185722 	0.011818 	0 -0.00201629 	0.0115985 	0 -0.00170387 	0.0117456 	0 -0.00146617 	0.0120346 	0 -0.00142065 	0.0125408 	0 -0.0016045 	0.0123303 	0 -0.0017895 	0.0119999 	0 -0.00145719 	0.0122736 	0 -0.0011427 	0.0126768 	0 -0.00111256 	0.0127878 	0 -0.00134048 	0.0124365 	0 -0.00154889 	0.0119878 	0 -0.00120113 	0.0124035 	0 -0.000873994 	0.0129902 	0 -0.00083234 	0.0126382 	0 -0.00108169 	0.0121999 	0 -0.00130973 	0.0116301 	0 -0.000951283 	0.0121998 	0 -0.000711812 	0.0125519 	0 -0.000687387 	0.0121212 	0 -0.000830144 	0.011597 	0 -0.00107388 	0.0109095 	0 -0.000709814 	0.0116409 	0 -0.000572825 	0.0116502 	0 -0.00055135 	0.0112134 	0 -0.000597908 	0.0107022 	0 -0.000852958 	0.00990744 	0 -0.000488475 	0.0108036 	0 -0.000445913 	0.0104674 	0 -0.000427434 	0.0100336 	0 -0.000408954 	0.00959982 	0 -0.000656429 	0.00872307 	0 -0.000349139 	0.00947491 	0 -0.000333566 	0.00905229 	0 -0.000317993 	0.00862967 	0 -0.00030242 	0.00820705 	0 -0.000482235 	0.00733323 	0 -0.000248825 	0.00780785 	0 -0.000235905 	0.00740242 	0 -0.000222984 	0.00699699 	0 -0.000210064 	0.00659156 	0 -0.000333077 	0.00578034 	2.85902e-37 -0.000165639 	0.00597628 	0 -0.00015494 	0.00559027 	0 -0.000144242 	0.00520425 	0 -0.000133543 	0.00481824 	0 -0.000209928 	0.00411567 	2.8881e-40 -9.91204e-05 	0.00403501 	0 -9.00184e-05 	0.00366449 	0 -8.09163e-05 	0.00329396 	0 -7.18143e-05 	0.00292343 	0 -0.000109225 	0.0023602 	-9.93095e-38 -4.99562e-05 	0.00219606 	0 -4.38121e-05 	0.00192597 	0 -3.76681e-05 	0.00165588 	0 -3.1524e-05 	0.00138579 	0 -2.5333e-05 	0.000575017 	0 -1.21998e-05 	0.000534252 	0 -1.06178e-05 	0.000464974 	0 -9.03584e-06 	0.000395696 	0 -7.45386e-06 	0.000326418 	0 0 	0 	0
-0.0290463 	4.81237e-05 	0 -0.0292636 	0.000181528 	0 -0.02937 	0.000286379 	-7.80938e-25 -0.0293479 	0.000359669 	-2.42489e-24 -0.029162 	0.000484738 	-1.9995e-23 -0.0288478 	0.000653659 	-5.09993e-23 -0.0289777 	0.000727702 	-2.52167e-22 -0.0290358 	0.000799832 	-3.76573e-22 -0.0289784 	0.000868824 	-3.83314e-22 -0.0287014 	0.0010282 	-2.6122e-22 -0.0283251 	0.00123711 	-7.06715e-23 -0.0283691 	0.00125728 	-9.95332e-23 -0.0283864 	0.00128721 	-1.22223e-22 -0.0282993 	0.00135293 	-1.21963e-22 -0.0279092 	0.00156842 	-7.18148e-23 -0.0274943 	0.0018139 	-1.28669e-23 -0.0274602 	0.00178857 	6.35833e-24 -0.027423 	0.00176289 	2.55925e-23 -0.0272705 	0.00184709 	7.24991e-24 -0.0268032 	0.00211978 	-2.49709e-23 -0.0263743 	0.00239834 	-5.69572e-23 -0.0262742 	0.00233822 	-2.14136e-22 -0.0261675 	0.00227708 	-3.71382e-22 -0.0258675 	0.00239566 	-3.60158e-22 -0.0254067 	0.00269605 	-1.80942e-22 -0.0249872 	0.00300436 	-1.24231e-24 -0.0248358 	0.00292179 	1.45232e-22 -0.0246765 	0.00283766 	2.91651e-22 -0.0241682 	0.00300095 	3.03848e-22 -0.0237318 	0.00330729 	2.23612e-22 -0.0233427 	0.00364198 	1.31319e-22 -0.0231561 	0.00355018 	2.62428e-22 -0.0227758 	0.00361088 	2.96332e-22 -0.022279 	0.00378317 	2.62196e-22 -0.0218102 	0.0039649 	2.26917e-22 -0.0214679 	0.00432089 	8.77549e-23 -0.021266 	0.00428459 	8.04454e-23 -0.0208762 	0.00442548 	1.10175e-22 -0.0205047 	0.00457354 	1.40392e-22 -0.0201521 	0.0047291 	1.71119e-22 -0.0199095 	0.0048483 	1.9392e-22 -0.0198137 	0.00490176 	1.95832e-22 -0.0197199 	0.00495604 	1.97681e-22 -0.0196281 	0.00501115 	1.99466e-22 -0.0195384 	0.00506708 	2.01188e-22 -0.0193845 	0.00517094 	2.09131e-22 -0.01889 	0.0053178 	1.89443e-22 -0.0184763 	0.00552845 	1.9366e-22 -0.0180937 	0.00575406 	1.95578e-22 -0.0176672 	0.00605209 	2.14425e-22 -0.017102 	0.00650593 	2.71961e-22 -0.0166232 	0.00662719 	1.54206e-22 -0.0161741 	0.00676655 	3.56268e-23 -0.0156259 	0.00702349 	0 -0.0151805 	0.00744848 	3.85727e-23 -0.0147578 	0.00794791 	7.82435e-23 -0.0146173 	0.0080177 	3.35381e-23 -0.0144683 	0.00810061 	0 -0.0142846 	0.00821641 	0 -0.0141083 	0.00833745 	0 -0.0139661 	0.00844387 	0 -0.0136435 	0.00869796 	0 -0.0133441 	0.00897106 	0 -0.0130686 	0.00926347 	0 -0.0127332 	0.00958911 	0 -0.0123634 	0.00999795 	0 -0.0120205 	0.0102553 	0 -0.0117102 	0.0105423 	0 -0.0113861 	0.0108392 	0 -0.0110826 	0.011161 	0 -0.0108909 	0.0114132 	0 -0.0106717 	0.0116795 	0 -0.0104663 	0.0119601 	0 -0.0102585 	0.0122263 	-1.69757e-23 -0.0100514 	0.0124833 	-4.74069e-23 -0.00980849 	0.0128217 	-8.54503e-23 -0.00956415 	0.013114 	-9.12513e-23 -0.00934138 	0.0134308 	-9.80484e-23 -0.0091448 	0.0137543 	-1.26683e-22 -0.00899453 	0.0140082 	-2.66999e-22 -0.00887965 	0.0142386 	-3.86492e-22 -0.00836829 	0.0148347 	-6.0005e-22 -0.00791671 	0.015486 	-7.79992e-22 -0.00759594 	0.0159531 	-5.03898e-22 -0.00730976 	0.0164686 	-2.3247e-22 -0.00712763 	0.017142 	1.16434e-22 -0.00705701 	0.0172968 	2.12639e-22 -0.00699824 	0.0174214 	2.42208e-22 -0.0069498 	0.0175194 	2.1302e-22 -0.00690232 	0.0176188 	1.84177e-22 -0.0068492 	0.017734 	1.51634e-22 -0.00661792 	0.0182118 	1.41297e-22 -0.00640982 	0.0187286 	1.32245e-22 -0.00622355 	0.0192817 	1.24401e-22 -0.00615251 	0.0197368 	1.28674e-22 -0.00626132 	0.0199521 	1.52326e-22 -0.00570824 	0.0205703 	9.60195e-23 -0.00518832 	0.0212742 	4.07261e-23 -0.00510378 	0.022028 	1.79539e-22 -0.00532219 	0.0223797 	3.69859e-22 -0.00551867 	0.0226909 	5.45676e-22 -0.00495292 	0.0235473 	2.4406e-22 -0.00449366 	0.0243726 	0 -0.00439278 	0.0246763 	0 -0.00450341 	0.0250381 	2.99151e-25 -0.00476661 	0.0254051 	8.15671e-25 -0.00419344 	0.0265185 	4.26413e-26 -0.00406836 	0.0269052 	0 -0.00397421 	0.0272721 	0 -0.0038851 	0.0276627 	0 -0.004023 	0.028056 	-1.26787e-22 -0.00375962 	0.0287039 	0 -0.00369738 	0.0289627 	0 -0.00363726 	0.0292329 	0 -0.0035792 	0.029514 	0 -0.00349178 	0.0299694 	0 -0.00347043 	0.0300942 	0 -0.00344939 	0.0302208 	0 -0.00342865 	0.030349 	0 -0.00340822 	0.0304789 	0 -0.00342828 	0.0304424 	0 -0.00328906 	0.0308895 	0 -0.00320202 	0.0313486 	0 -0.00311931 	0.0318345 	0 -0.00304076 	0.0323461 	0 -0.00315261 	0.0320272 	0 -0.0028585 	0.032682 	0 -0.00277489 	0.0331968 	0 -0.00269523 	0.0337391 	0 -0.00262551 	0.0342772 	0 -0.00286701 	0.0333014 	0 -0.00250252 	0.0341975 	0 -0.00236736 	0.0348337 	0 -0.00229032 	0.0354232 	0 -0.00233403 	0.0354044 	0 -0.00257938 	0.0342764 	0 -0.00221958 	0.0353357 	0 -0.00198662 	0.0362409 	0 -0.00191277 	0.0368666 	0 -0.00205539 	0.036269 	0 -0.00230126 	0.0349946 	0 -0.00195077 	0.0362108 	0 -0.00164429 	0.0374483 	7.53736e-38 -0.00157577 	0.0380993 	6.37021e-37 -0.00180173 	0.0369262 	1.20023e-36 -0.00204638 	0.0355137 	1.75655e-36 -0.00170896 	0.0368772 	1.136e-36 -0.00137906 	0.0383753 	5.21709e-37 -0.00133371 	0.0388404 	7.74945e-40 -0.00158437 	0.0373963 	1.65074e-39 -0.00182882 	0.0358542 	2.51601e-39 -0.00150686 	0.0373537 	1.56383e-39 -0.00119178 	0.0389917 	6.20858e-40 -0.00116283 	0.0392576 	-3.84606e-37 -0.00141813 	0.0376984 	-9.53576e-37 -0.00166752 	0.0360328 	-1.51614e-36 -0.00136174 	0.0376589 	-9.03198e-37 -0.00106236 	0.0394265 	-2.95928e-37 -0.00105165 	0.0395259 	0 -0.00132331 	0.0378545 	0 -0.0015888 	0.036063 	0 -0.0012982 	0.0378136 	0 -0.0010139 	0.0397099 	0 -0.00101799 	0.0396475 	0 -0.00132657 	0.0378545 	0 -0.00162768 	0.0359166 	0 -0.00135034 	0.0378071 	0 -0.00107983 	0.0398516 	0 -0.0010834 	0.03958 	0 -0.00146116 	0.0376303 	0 -0.00182796 	0.0354898 	0 -0.00156354 	0.0375731 	0 -0.00131109 	0.0397805 	0 -0.0012893 	0.0391195 	0 -0.00175629 	0.0369891 	0 -0.00222945 	0.0345229 	0 -0.00198527 	0.0369285 	0 -0.00179521 	0.0386455 	0 -0.0017476 	0.0376206 	0 -0.00218642 	0.0354066 	0 -0.00281002 	0.0323707 	0 -0.00261382 	0.0353875 	0 -0.00246475 	0.0359812 	0 -0.00234717 	0.0342647 	0 -0.00253986 	0.0318658 	0 -0.0033376 	0.0278253 	0 -0.0032614 	0.0320698 	0 -0.0029828 	0.0297447 	0 -0.00268289 	0.0267539 	0 -0.00238298 	0.0237632 	0 -0.00301516 	0.0184829 	0 -0.00291454 	0.0209851 	0 -0.00229198 	0.0165026 	0 -0.00166942 	0.0120201 	0 -0.00104686 	0.00753756 	0 0 	0 	0
-0.0422039 	5.93982e-05 	0 -0.0421721 	0.000266191 	-2.26481e-23 -0.0420897 	0.000493806 	-5.17171e-23 -0.0420275 	0.000721935 	-8.09412e-23 -0.0419855 	0.000950574 	-1.1032e-22 -0.0419204 	0.00117023 	-1.40131e-22 -0.0417743 	0.00136138 	-1.74255e-22 -0.0415914 	0.001575 	-1.77214e-22 -0.0414277 	0.00179013 	-1.79303e-22 -0.0412835 	0.00200676 	-1.80509e-22 -0.0412411 	0.00208121 	-1.80617e-22 -0.0412268 	0.00211028 	-1.81277e-22 -0.0412128 	0.00213937 	-1.81931e-22 -0.0411993 	0.0021685 	-1.82579e-22 -0.0411861 	0.00219766 	-1.8322e-22 -0.0411629 	0.00223185 	-1.84844e-22 -0.0408907 	0.00243464 	-1.53195e-22 -0.0406333 	0.00263889 	-1.21598e-22 -0.0403959 	0.00284576 	-8.97658e-23 -0.0401788 	0.00305528 	-5.76949e-23 -0.0398696 	0.00332607 	-3.1097e-23 -0.0395617 	0.00351749 	-3.52412e-23 -0.0392445 	0.00371642 	-2.73705e-23 -0.0389474 	0.00391898 	-1.9528e-23 -0.0386709 	0.00412525 	-1.17145e-23 -0.0381548 	0.00447927 	2.63441e-23 -0.037801 	0.00463147 	1.71165e-22 -0.0374469 	0.00483169 	2.08203e-22 -0.0371135 	0.00503672 	2.46266e-22 -0.0367016 	0.00530559 	2.29186e-22 -0.0360717 	0.0057267 	7.63966e-23 -0.0356613 	0.00585657 	4.7345e-23 -0.035274 	0.00600899 	2.77295e-23 -0.0349282 	0.00622461 	3.91453e-23 -0.0342854 	0.00664858 	6.97208e-23 -0.0336692 	0.00709737 	1.00437e-22 -0.0332341 	0.00722584 	5.45694e-23 -0.0328163 	0.00736092 	8.51337e-24 -0.0321672 	0.00767086 	0 -0.0315647 	0.00812689 	1.55831e-23 -0.030995 	0.00861138 	3.11126e-23 -0.0305674 	0.00875743 	4.65369e-24 -0.0299312 	0.00907518 	0 -0.0292824 	0.00944623 	0 -0.028675 	0.00983873 	0 -0.028141 	0.0102317 	0 -0.0281313 	0.0102404 	0 -0.0281216 	0.0102491 	0 -0.028112 	0.0102578 	0 -0.0281006 	0.0102675 	0 -0.0280858 	0.010279 	0 -0.0274361 	0.0106666 	0 -0.0268332 	0.0110846 	0 -0.0262742 	0.0115302 	0 -0.0256618 	0.0120521 	0 -0.0248951 	0.0127325 	0 -0.02427 	0.0131189 	0 -0.0236747 	0.0135478 	0 -0.0229461 	0.0140845 	0 -0.0222832 	0.0146684 	0 -0.0216118 	0.0153817 	0 -0.0216092 	0.0153853 	0 -0.0216066 	0.0153889 	0 -0.0216039 	0.0153924 	0 -0.0216003 	0.0153961 	0 -0.0215967 	0.0153997 	0 -0.0208445 	0.0160142 	0 -0.0201621 	0.016693 	0 -0.0195327 	0.0174294 	1.98316e-25 -0.0188348 	0.0181829 	2.11635e-24 -0.0180156 	0.0192612 	4.64589e-24 -0.017928 	0.0193785 	4.65733e-24 -0.0178423 	0.0194976 	4.67064e-24 -0.0177533 	0.0196095 	-6.90699e-25 -0.0176589 	0.0197105 	-1.35941e-23 -0.0175709 	0.0198081 	-2.58585e-23 -0.0168026 	0.0206339 	-1.48119e-23 -0.0161128 	0.0215487 	-2.50911e-25 -0.0154691 	0.022397 	-4.00969e-23 -0.0149157 	0.0232583 	-1.2639e-22 -0.0145382 	0.0241047 	-2.24636e-22 -0.0144411 	0.024307 	-2.96266e-22 -0.0143458 	0.0245054 	-3.51684e-22 -0.0142499 	0.0246593 	-2.83367e-22 -0.0141559 	0.0248154 	-2.15531e-22 -0.0140536 	0.0249908 	-1.40829e-22 -0.0136198 	0.0256886 	1.94242e-22 -0.0132264 	0.0264369 	5.18495e-22 -0.0128717 	0.0272331 	8.32247e-22 -0.0126396 	0.0278061 	5.80277e-22 -0.0124779 	0.0282707 	2.10532e-22 -0.0118454 	0.0293166 	-9.65859e-23 -0.0112656 	0.0304441 	-4.0789e-22 -0.0108962 	0.0311316 	-2.8e-23 -0.010677 	0.0318835 	7.27711e-22 -0.0105867 	0.0326124 	1.66951e-21 -0.0102402 	0.033459 	2.3282e-21 -0.0100044 	0.03403 	2.084e-21 -0.00980732 	0.0345331 	1.58423e-21 -0.00962003 	0.0350544 	1.09505e-21 -0.00935988 	0.0358428 	3.94413e-22 -0.00927723 	0.0361221 	2.95642e-22 -0.00919678 	0.0364056 	1.97107e-22 -0.00911847 	0.0366934 	9.88048e-23 -0.00904517 	0.0369801 	2.83056e-24 -0.00910554 	0.0370295 	2.98856e-24 -0.00861846 	0.0379329 	-9.10634e-23 -0.00835472 	0.0388965 	-3.01294e-22 -0.00811237 	0.0399059 	-5.15439e-22 -0.00801174 	0.0407113 	-7.32994e-22 -0.00824738 	0.0408628 	-9.45381e-22 -0.00758863 	0.0419964 	-6.21045e-22 -0.00701636 	0.0432073 	-1.40976e-22 -0.00683625 	0.044352 	1.25166e-21 -0.00712775 	0.0445138 	2.35529e-21 -0.00740274 	0.0446419 	3.42132e-21 -0.00673881 	0.0459997 	1.91269e-21 -0.00610126 	0.0474586 	4.24693e-22 -0.00594679 	0.0480865 	6.91359e-25 -0.00626819 	0.0482132 	3.59065e-24 -0.00657369 	0.048301 	6.41082e-24 -0.00590932 	0.0498768 	2.6745e-24 -0.00541337 	0.0511788 	0 -0.0053092 	0.0515663 	0 -0.00544698 	0.0517739 	-3.01902e-21 -0.00577291 	0.0518019 	-8.42632e-21 -0.00511341 	0.0535826 	-1.64372e-21 -0.00487686 	0.0543242 	0 -0.00477615 	0.0547379 	0 -0.00467925 	0.0551706 	-2.93573e-26 -0.00501633 	0.0551187 	-1.06415e-23 -0.00445612 	0.0568117 	0 -0.00435757 	0.0572227 	0 -0.00426134 	0.0576544 	0 -0.00416739 	0.0581064 	0 -0.00431691 	0.0582097 	2.49989e-21 -0.00396102 	0.0594223 	3.24679e-37 -0.00386979 	0.0598442 	9.50859e-37 -0.00378052 	0.060286 	1.57595e-36 -0.00369318 	0.0607473 	2.19997e-36 -0.00369404 	0.0610625 	2.9337e-36 -0.00354801 	0.0616507 	3.19229e-36 -0.00349738 	0.0619173 	2.67088e-36 -0.00344739 	0.0621912 	2.15221e-36 -0.00339804 	0.0624725 	1.63625e-36 -0.00333312 	0.0628567 	9.52541e-37 -0.00330861 	0.0630093 	7.52854e-37 -0.00328425 	0.0631638 	5.53259e-37 -0.00326005 	0.0633201 	3.53757e-37 -0.00323601 	0.0634783 	1.54347e-37 -0.00323721 	0.0634659 	4.45362e-39 -0.00315236 	0.0639747 	-5.03154e-37 -0.0030922 	0.0644076 	-1.06112e-36 -0.00303321 	0.0648553 	-1.61986e-36 -0.00297538 	0.0653177 	-2.17936e-36 -0.00301237 	0.0650933 	-2.73891e-36 -0.00288834 	0.0659185 	-2.12597e-36 -0.00286044 	0.0663614 	-1.5144e-36 -0.0028332 	0.0668134 	-9.03225e-37 -0.00280662 	0.0672742 	-2.92444e-37 -0.00293029 	0.0665126 	0 -0.002775 	0.0676911 	0 -0.00279996 	0.0681616 	0 -0.00282484 	0.068631 	0 -0.00284964 	0.0690993 	0 -0.00307073 	0.067759 	0 -0.00287534 	0.0693473 	0 -0.00298573 	0.0698798 	0 -0.0030947 	0.070394 	0 -0.00320227 	0.0708903 	0 -0.00354551 	0.0688361 	0 -0.00328109 	0.0709194 	0 -0.00351645 	0.0716039 	0 -0.00375877 	0.0722112 	0 -0.00403385 	0.0722734 	0 -0.00449788 	0.0696494 	0 -0.0042537 	0.072055 	0 -0.004495 	0.073393 	0 -0.00494374 	0.0741765 	0 -0.00546153 	0.0731579 	0 -0.00606386 	0.0698541 	0 -0.00586766 	0.0728709 	0 -0.00597068 	0.0753825 	0 -0.00672628 	0.0764911 	0 -0.00749573 	0.0732127 	0 -0.00823381 	0.0686447 	0 -0.00815761 	0.0728891 	0 -0.0081033 	0.0773206 	0 -0.00888901 	0.0773917 	0 -0.00972409 	0.0710379 	0 -0.0104613 	0.0641274 	0 -0.0106561 	0.0709006 	0 -0.0109068 	0.0780273 	0 -0.0102735 	0.073971 	0 -0.0107148 	0.0638317 	0 -0.0109938 	0.052772 	0 -0.0117053 	0.064955 	0 -0.0110841 	0.0643886 	0 -0.00957816 	0.0556407 	0 -0.00807227 	0.0468928 	0 -0.00676783 	0.0293913 	0 -0.00742702 	0.0434816 	0 -0.00603384 	0.0353252 	0 -0.00464066 	0.0271688 	0 -0.00324748 	0.0190124 	0 0 	0 	0