# vtk DataFile Version 2.0
track0
ASCII
DATASET POLYDATA
POINTS 39119 float
0.05 8.57988e-20 2.57396e-18
0.05 0.00217391 -1.05592e-17
0.05 0.00217391 -1.05592e-17
0.05 0.00217391 -1.05592e-17
0.05 0.00217391 -1.05592e-17
0.05 0.00217391 -1.05592e-17
0.05 0.00217391 -1.38778e-17
0.0493333 0.00217552 -9.4369e-18
0.0486667 0.00217806 -8.88179e-18
0.048 0.00218209 -7.67647e-18
0.0473334 0.00218923 -1.05847e-17
0.0466667 0.00219896 -1.249e-17
0.046 0.00221117 -1.42941e-17
0.0453333 0.00222275 -1.9984e-17
0.0446667 0.00223489 -2.3895e-17
0.044 0.00224999 -2.3176e-17
0.0433333 0.00226858 -2.498e-17
0.0426667 0.00229105 -1.91513e-17
0.0419999 0.00231151 -1.75558e-17
0.0413332 0.00233219 -1.81715e-17
0.0406666 0.00235579 -1.7801e-17
0.04 0.00238335 -1.80411e-17
0.0393333 0.00241609 -1.42941e-17
0.0386665 0.00244565 -2.27593e-17
0.0379997 0.00247595 -2.66165e-17
0.0373331 0.00250921 -2.16026e-17
0.0366667 0.00254631 -2.498e-17
0.036 0.00258978 -2.60902e-17
0.0353331 0.00262913 -2.20631e-17
0.0346663 0.00267078 -2.0363e-17
0.0339997 0.00271558 -2.43206e-17
0.0333333 0.00276368 -2.77556e-17
0.0326667 0.00281892 -3.28904e-17
0.0319998 0.00287107 -2.51878e-17
0.0313331 0.00292661 -3.03762e-17
0.0306668 0.0029857 -2.7918e-17
0.03 0.00304855 -2.498e-17
0.0294486 0.0031055 -2.2674e-17
0.0288972 0.00316216 -2.5919e-17
0.028346 0.00322149 -2.65624e-17
0.0277952 0.00328359 -2.59591e-17
0.0273736 0.00333333 -2.04385e-17
0.0272322 0.0033506 -2.21795e-17
0.0270909 0.00336808 -2.39204e-17
0.0269495 0.00338575 -1.59468e-17
0.0268082 0.00340363 -1.76876e-17
0.0266667 0.00342174 -1.64325e-17
0.026 0.00350993 -7.88553e-18
0.0253338 0.00360134 -9.04498e-18
0.0246682 0.00369754 -1.40191e-17
0.0240034 0.00379874 -1.01364e-17
0.0233333 0.00390609 1.82173e-18
0.0226667 0.00403179 -8.79595e-18
0.0219994 0.00415424 -9.69376e-18
0.0213331 0.00428206 -7.42258e-18
0.0206681 0.00441598 -3.11729e-18
0.02 0.00456693 8.57801e-19
0.0193333 0.0047451 -5.5074e-20
0.0186665 0.00492259 -4.95107e-18
0.0179994 0.00509934 -6.43053e-18
0.0173359 0.00528864 -6.66745e-19
0.0166667 0.00550904 -6.93889e-18
0.0160535 0.00574056 -5.40721e-18
0.0154412 0.00597435 -8.95929e-18
0.0148333 0.00621932 -1.37316e-17
0.0142326 0.00648152 -1.42739e-17
0.0138414 0.00666667 -1.47239e-17
0.0137398 0.00671741 -9.00357e-18
0.0136385 0.00676882 -1.71616e-17
0.0135376 0.0068209 -1.83813e-17
0.013437 0.00687365 -2.13385e-17
0.0133333 0.00692915 -1.9866e-17
0.0126667 0.00729477 -2.32505e-17
0.0120125 0.00768231 -1.76508e-17
0.0113737 0.00809475 -1.97815e-17
0.0107523 0.00853288 -1.56344e-17
0.01 0.0091244 -1.249e-17
0.00980513 0.00929952 -1.06154e-17
0.00961203 0.00947659 -1.7072e-17
0.00942074 0.00965561 -2.22637e-17
0.0092313 0.00983659 -2.34308e-17
0.00906378 0.01 -2.498e-17
0.00858436 0.0104764 -2.24021e-17
0.00812824 0.0109752 -2.44515e-17
0.00769689 0.0114955 -2.00418e-17
0.0072892 0.0120346 -1.90009e-17
0.00666667 0.0129301 -1.80411e-17
0.00661759 0.0130107 -2.08984e-17
0.00656881 0.0130915 -2.23674e-17
0.00652034 0.0131726 -2.52237e-17
0.00647216 0.0132538 -1.9105e-17
0.0064251 0.0133333 -1.80411e-17
0.00603177 0.014 -1.98452e-17
0.00567449 0.0146867 -2.20296e-17
0.00534757 0.0153883 -2.48057e-17
0.00504746 0.0161018 -2.0568e-17
0.00481217 0.0166667 -1.81634e-17
0.00453643 0.0173333 -1.71175e-17
0.00429965 0.0180148 -1.83893e-17
0.00408922 0.0187049 -1.82842e-17
0.00388937 0.0193981 -1.20268e-17
0.00372527 0.02 -6.69175e-18
0.00364688 0.0202827 -1.14596e-17
0.00357517 0.0205671 -4.31553e-18
0.0035056 0.0208521 -6.50065e-18
0.00343771 0.0211375 -3.83067e-18
0.00333333 0.0215876 7.8981e-19
0.0032556 0.0219368 -8.45613e-18
0.00318001 0.0222864 -4.41867e-18
0.00310651 0.0226364 -7.31663e-18
0.00303502 0.0229869 -4.96785e-19
0.00296636 0.0233333 0
0.00283024 0.024 -2.498e-18
0.00270859 0.0246695 -2.91899e-18
0.00259442 0.0253402 3.23358e-18
0.00248714 0.0260121 6.61775e-19
0.00238476 0.0266667 0
0.00226944 0.0273333 2.35922e-18
0.00217256 0.0280029 4.03188e-18
0.00209016 0.0286745 9.03194e-18
0.0020133 0.0293466 7.40246e-18
0.00192833 0.03 0
0.00182908 0.0306667 9.71445e-19
0.00174946 0.031336 2.28546e-18
0.00168851 0.0320072 5.70773e-19
0.00162965 0.0326787 2.35874e-19
0.00155876 0.0333333 7.31236e-19
0.00147242 0.034 2.11437e-18
0.0014071 0.0346691 1.37926e-18
0.0013612 0.0353397 -7.66955e-19
0.0013163 0.0360105 -3.06408e-18
0.00125748 0.0366667 -1.24556e-20
0.00118186 0.0373333 -3.00902e-18
0.00112887 0.0380022 -2.95185e-18
0.00109053 0.038672 8.23743e-19
0.00105219 0.0393419 -3.85404e-18
0.00100418 0.04 -9.784e-19
0.000937691 0.0406667 8.15288e-18
0.000895841 0.0413353 6.9769e-18
0.000862398 0.0420045 8.45801e-18
0.000828955 0.0426736 1.1731e-17
0.000791028 0.0433333 8.39713e-18
0.000732478 0.044 9.18852e-18
0.00070103 0.0446685 1.28522e-17
0.000671837 0.0453371 7.41836e-18
0.000642643 0.0460057 3.18242e-18
0.000613781 0.0466667 5.91674e-18
0.000562187 0.0473333 6.50574e-18
0.000536699 0.0480015 4.79862e-18
0.000511212 0.0486697 2.21542e-18
0.000485725 0.0493379 2.49047e-18
0.000460468 0.05 1.03354e-17
0.000414948 0.0506667 9.26629e-18
0.000392657 0.0513345 1.40585e-17
0.000370367 0.0520024 1.54004e-17
0.000348076 0.0526702 1.42882e-17
0.000325943 0.0533333 1.88861e-17
0.000285611 0.054 2.24921e-17
0.00026597 0.0546676 2.39835e-17
0.000246328 0.0553352 1.57482e-17
0.000226686 0.0560028 1.35956e-17
0.000207154 0.0566667 2.32473e-17
0.000171008 0.0573333 2.54585e-17
0.000153352 0.0580007 2.97219e-17
0.000135695 0.0586682 2.75449e-17
0.000118039 0.0593356 2.40048e-17
0.000100461 0.06 2.48127e-17
8.03689e-05 0.0604034 2.48241e-17
7.03501e-05 0.0608072 2.6901e-17
6.03312e-05 0.061211 2.55085e-17
5.03124e-05 0.0616148 2.75854e-17
7.67228e-06 0.0633333 3.32939e-17
6.13782e-06 0.0633654 3.22873e-17
5.33406e-06 0.0633975 2.94581e-17
4.5303e-06 0.0634295 3.34594e-17
3.72654e-06 0.0634616 3.03916e-17
0 0.0636104 2.85639e-17
0.05 0.00434783 5.94331e-18
0.0493333 0.00434945 -3.04395e-19
0.0486667 0.004354 -1.69975e-18
0.048 0.00436085 -4.99608e-18
0.0473334 0.00436935 4.43132e-18
0.0466667 0.00438078 5.19455e-18
0.046 0.00439625 7.25045e-18
0.0453334 0.00441327 7.22211e-18
0.0446668 0.00443185 7.14784e-18
0.0440002 0.00445204 7.63682e-18
0.0433333 0.00447615 1.1776e-17
0.0426667 0.0045055 1.50941e-17
0.042 0.00453522 1.77206e-17
0.0413334 0.00456555 1.89431e-17
0.0406668 0.00459751 1.36013e-17
0.04 0.00463511 1.44855e-17
0.0393333 0.00467922 1.57998e-17
0.0386666 0.00472272 9.13537e-18
0.0379999 0.00476562 1.14407e-17
0.0373333 0.0048108 1.31465e-17
0.0366667 0.00486356 1.35064e-17
0.036 0.00492422 1.7931e-17
0.0353332 0.00498356 1.20038e-17
0.0346663 0.00504156 1.29837e-17
0.0339997 0.00510326 1.95096e-17
0.0333333 0.00517393 2.22045e-17
0.0326667 0.00525404 2.52576e-17
0.0319998 0.00533243 2.44948e-17
0.0313327 0.00540905 2.37516e-17
0.0306664 0.00549172 2.72836e-17
0.03 0.00558447 2.498e-17
0.0293333 0.00568838 2.80331e-17
0.0286664 0.0057905 2.78948e-17
0.028 0.00589605 2.45293e-17
0.0273348 0.00600889 2.38805e-17
0.0266667 0.00613021 2.498e-17
0.0261329 0.0062375 2.17055e-17
0.0255993 0.00634489 1.21859e-17
0.0250667 0.00645763 3.87885e-18
0.0245353 0.00657595 -2.31277e-18
0.024148 0.00666667 -4.13219e-18
0.023985 0.00670626 -3.16697e-18
0.0238223 0.00674646 1.96133e-18
0.0236596 0.00678727 -6.09451e-18
0.0234972 0.00682869 2.50273e-18
0.0233333 0.00687113 2.43505e-18
0.0226667 0.00704884 -6.36451e-19
0.0220025 0.00723568 -9.47597e-19
0.0213415 0.00743335 -6.36344e-18
0.0206839 0.00764235 -5.06528e-18
0.02 0.00787658 -1.12024e-17
0.0193333 0.00813015 -1.40384e-17
0.0186708 0.0083943 -1.64383e-17
0.0180128 0.00866964 -1.53911e-17
0.0173623 0.00896217 -1.90884e-17
0.0166667 0.00930375 -1.11022e-17
0.0164084 0.009443 -1.84712e-17
0.0161512 0.00958424 -1.5795e-17
0.0158953 0.00972772 -1.32871e-17
0.015641 0.00987416 -1.35575e-17
0.0154284 0.01 -1.38778e-17
0.0150094 0.0102537 -1.29125e-17
0.0145965 0.0105173 -1.97979e-17
0.0141903 0.010791 -2.29378e-17
0.0137911 0.0110748 -2.39524e-17
0.0133333 0.0114205 -2.66518e-17
0.0128619 0.0118031 -3.13162e-17
0.0124008 0.012198 -2.93086e-17
0.0119503 0.012605 -2.92688e-17
0.0115114 0.0130244 -1.74264e-17
0.0112057 0.0133333 -2.93944e-17
0.0109645 0.0135869 -2.21278e-17
0.0107291 0.0138458 -2.60197e-17
0.0104993 0.0141097 -2.93758e-17
0.0102751 0.0143784 -3.06367e-17
0.01 0.0147221 -3.67753e-17
0.0097046 0.015111 -2.96353e-17
0.00941805 0.0155065 -3.70514e-17
0.00914029 0.0159082 -3.95078e-17
0.0088709 0.0163156 -3.76714e-17
0.00864652 0.0166667 -3.60822e-17
0.00825055 0.0173043 -4.50494e-17
0.00788336 0.017959 -4.53784e-17
0.00754358 0.0186283 -4.64478e-17
0.00722288 0.0193069 -4.54464e-17
0.00691774 0.02 -4.51695e-17
0.00686752 0.0201209 -4.25194e-17
0.00681823 0.0202422 -3.77527e-17
0.00676968 0.0203638 -3.91173e-17
0.00672173 0.0204857 -4.26509e-17
0.00666667 0.0206276 -3.38206e-17
0.0064601 0.0211687 -3.21219e-17
0.00626386 0.0217137 -4.09164e-17
0.00607737 0.0222621 -3.84514e-17
0.00590008 0.0228135 -3.75812e-17
0.00573851 0.0233333 -3.60822e-17
0.00552988 0.024 -3.64986e-17
0.00534337 0.0246732 -3.48441e-17
0.00517763 0.0253518 -3.46433e-17
0.0050199 0.0260323 -4.18617e-17
0.00486894 0.0266667 -4.3869e-17
0.00470663 0.0273333 -4.89581e-17
0.00456503 0.0280047 -4.77013e-17
0.00444072 0.0286795 -5.05365e-17
0.00432047 0.029355 -4.76555e-17
0.00420378 0.03 -4.79402e-17
0.00407795 0.0306667 -5.12001e-17
0.0039711 0.0313366 -5.0184e-17
0.00386932 0.0320074 -4.60172e-17
0.00377106 0.0326787 -4.67882e-17
0.00367862 0.0333333 -4.08206e-17
0.00360956 0.0338092 -4.11274e-17
0.00354682 0.034286 -3.90146e-17
0.00348573 0.034763 -4.64452e-17
0.00342625 0.0352402 -3.63087e-17
0.00333333 0.0360061 -3.747e-17
0.00331798 0.0361382 -3.74956e-17
0.00330275 0.0362703 -3.89087e-17
0.00328762 0.0364025 -3.33828e-17
0.0032726 0.0365346 -3.06323e-17
0.0032577 0.0366667 -3.19189e-17
0.00318207 0.0373333 -2.47025e-17
0.00311015 0.0380004 -2.30378e-17
0.00304102 0.0386678 -1.71401e-17
0.00297457 0.0393354 -2.14141e-17
0.00291101 0.04 -1.80411e-17
[...]
POINT_DATA 39119
 FIELD attributes 1
U 3 39119 float
-6.02647e-19 	-1.36393e-21 	0
-0.0141826 	3.41612e-05 	0 -0.0141826 	3.41612e-05 	0 -0.0141826 	3.41612e-05 	0 -0.0141826 	3.41612e-05 	0 -0.0141826 	3.41612e-05 	0 -0.0141826 	3.41612e-05 	0 -0.0145069 	5.5312e-05 	0 -0.0147363 	8.90038e-05 	-5.63822e-25 -0.0146956 	0.000157375 	-2.68755e-24 -0.0144488 	0.000210883 	-4.82104e-24 -0.0141329 	0.000258933 	-6.96302e-24 -0.0144493 	0.000250982 	2.70812e-22 -0.0146264 	0.000266245 	4.55453e-22 -0.0145305 	0.000329253 	4.49412e-22 -0.0143032 	0.000398783 	2.68503e-22 -0.0140135 	0.000472357 	-1.03427e-23 -0.0143093 	0.000438985 	1.13625e-22 -0.0143997 	0.000446749 	1.87966e-22 -0.0142587 	0.000504693 	2.02414e-22 -0.0140608 	0.000581373 	1.5851e-22 -0.0138077 	0.000678128 	5.29019e-23 -0.0140728 	0.00062384 	3.8831e-23 -0.0140483 	0.000638329 	2.89641e-23 -0.0138751 	0.000692317 	2.15257e-23 -0.0136995 	0.000762649 	1.76836e-23 -0.0134906 	0.000879656 	2.44348e-23 -0.0137177 	0.000809488 	1.84545e-23 -0.0135592 	0.000846779 	4.38769e-24 -0.0133672 	0.000898553 	-1.06661e-23 -0.0131903 	0.00095196 	-2.57253e-23 -0.0130317 	0.00107985 	-3.53241e-23 -0.0131348 	0.00102702 	-1.07127e-22 -0.0129226 	0.00107674 	-8.91631e-23 -0.0127247 	0.0011284 	-7.07086e-23 -0.0125419 	0.00118208 	-5.17431e-23 -0.0124073 	0.00128163 	8.44705e-24 -0.0123691 	0.00127089 	-3.77325e-23 -0.0121965 	0.00131293 	-2.68863e-23 -0.0120336 	0.0013566 	-1.54966e-23 -0.0118809 	0.00140194 	-3.54382e-24 -0.0117721 	0.00143798 	6.05475e-24 -0.0117381 	0.00145071 	9.45932e-24 -0.0117049 	0.00146355 	1.29054e-23 -0.0116724 	0.00147652 	1.63932e-23 -0.0116407 	0.00148962 	1.9923e-23 -0.0115745 	0.00153118 	7.39628e-24 -0.0113541 	0.00155777 	5.64142e-24 -0.0111645 	0.0016138 	6.52205e-24 -0.0109897 	0.00167287 	7.37662e-24 -0.0108304 	0.00173511 	8.20397e-24 -0.0104914 	0.0019782 	4.42029e-23 -0.0101736 	0.00186697 	3.2835e-22 -0.00999927 	0.00191818 	4.01071e-22 -0.00984766 	0.001983 	4.63194e-22 -0.00959871 	0.00216886 	3.78943e-22 -0.00927801 	0.00247954 	1.571e-22 -0.00899872 	0.00239515 	3.91559e-22 -0.00871785 	0.00231009 	6.26002e-22 -0.00843028 	0.0024049 	6.39081e-22 -0.00817171 	0.00269132 	4.33937e-22 -0.00795647 	0.00300429 	2.29899e-22 -0.00774964 	0.00295894 	4.14794e-22 -0.00748264 	0.00301524 	4.4675e-22 -0.00719829 	0.00314202 	3.86906e-22 -0.00694597 	0.00328754 	3.23933e-22 -0.00680214 	0.00339677 	2.80179e-22 -0.00676038 	0.00343148 	2.6869e-22 -0.00671982 	0.00346698 	2.57088e-22 -0.00668045 	0.00350326 	2.4537e-22 -0.0066289 	0.00354963 	2.44114e-22 -0.0065704 	0.00360338 	2.48002e-22 -0.00619984 	0.00367294 	1.65947e-22 -0.00594761 	0.00384036 	9.08936e-23 -0.00572438 	0.00403595 	1.80898e-23 -0.00546688 	0.00429831 	2.43281e-23 -0.00519905 	0.00467215 	2.98014e-23 -0.00513966 	0.00471321 	1.72087e-23 -0.00508335 	0.00475716 	4.6098e-24 -0.00502885 	0.00480434 	2.73288e-23 -0.00497677 	0.00485465 	7.04296e-23 -0.00493312 	0.00490225 	1.08935e-22 -0.00464824 	0.00508295 	1.09284e-22 -0.00439379 	0.00530029 	1.0432e-22 -0.00417668 	0.0055229 	9.4009e-23 -0.00399503 	0.0057462 	7.88081e-23 -0.00374486 	0.00615438 	4.71993e-23 -0.00372939 	0.00618083 	7.77914e-23 -0.00371426 	0.00620776 	1.08117e-22 -0.00369948 	0.00623515 	1.38176e-22 -0.00369945 	0.00625497 	7.43698e-23 -0.00370132 	0.00627355 	3.25004e-25 -0.00335006 	0.00643846 	-5.95715e-22 -0.00315518 	0.00677141 	-9.84021e-22 -0.00301132 	0.00715932 	-1.32663e-21 -0.00309442 	0.00742913 	-1.04982e-21 -0.00316263 	0.00764646 	-8.30334e-22 -0.00277248 	0.00797963 	-5.48266e-22 -0.00252303 	0.00827383 	-3.18299e-22 -0.00243865 	0.00845871 	-1.68458e-22 -0.00236288 	0.00866666 	-1.43315e-23 -0.00249719 	0.00900527 	8.02617e-24 -0.00233137 	0.00924827 	6.32194e-25 -0.00228406 	0.00935531 	0 -0.00224927 	0.00945415 	0 -0.0022161 	0.00955804 	0 -0.0021663 	0.00972943 	0 -0.00213147 	0.00985896 	0 -0.00209867 	0.00999525 	0 -0.00206783 	0.0101381 	0 -0.0020389 	0.0102872 	0 -0.00209148 	0.0102427 	0 -0.00188036 	0.0103487 	0 -0.00181485 	0.0106625 	0 -0.00175738 	0.0110068 	0 -0.00175708 	0.0112325 	0 -0.00190708 	0.0110246 	0 -0.0016151 	0.0111637 	0 -0.00140408 	0.0114429 	0 -0.0013622 	0.0119132 	0 -0.00152668 	0.0117393 	0 -0.00170148 	0.0114287 	0 -0.00139003 	0.0116844 	0 -0.00109501 	0.0120598 	0 -0.00106955 	0.0122004 	0 -0.00128537 	0.0118708 	0 -0.00148296 	0.0114504 	0 -0.00115567 	0.0118373 	0 -0.000847501 	0.0123822 	0 -0.000808889 	0.0120834 	0 -0.00104632 	0.0116732 	0 -0.00126364 	0.01114 	0 -0.00092446 	0.0116698 	0 -0.000688744 	0.0120322 	0 -0.000665351 	0.0116235 	0 -0.000811904 	0.0111296 	0 -0.00104574 	0.010486 	0 -0.00069892 	0.0111671 	0 -0.000559916 	0.011203 	0 -0.000539013 	0.0107847 	0 -0.000591736 	0.0102929 	0 -0.000838548 	0.00954797 	0 -0.000488536 	0.0103851 	0 -0.000440357 	0.0100851 	0 -0.000422019 	0.00966507 	0 -0.000403681 	0.00924508 	0 -0.000651578 	0.00841915 	0 -0.000348869 	0.00914601 	0 -0.000333053 	0.00873137 	0 -0.000317237 	0.00831673 	0 -0.00030142 	0.00790209 	0 -0.000482863 	0.00707177 	0 -0.000251039 	0.00752138 	0 -0.000237553 	0.00711734 	0 -0.000224068 	0.0067133 	0 -0.000210582 	0.00630926 	0 -0.000334713 	0.00553258 	2.74422e-37 -0.000167561 	0.00569521 	0 -0.000156037 	0.00530355 	0 -0.000144514 	0.00491188 	0 -0.000132991 	0.00452022 	0 -0.000208417 	0.00384402 	2.77427e-40 -9.82173e-05 	0.00371259 	0 -8.80764e-05 	0.00332926 	0 -7.79355e-05 	0.00294594 	0 -6.77946e-05 	0.00256262 	0 -0.000100623 	0.00202033 	-8.44467e-38 -4.67793e-05 	0.00188536 	0 -4.09478e-05 	0.00165033 	0 -3.51162e-05 	0.0014153 	0 -2.92847e-05 	0.00118027 	0 -7.95779e-06 	0.00016623 	0 -3.88326e-06 	0.000154989 	0 -3.37474e-06 	0.000134693 	0 -2.86622e-06 	0.000114397 	0 -2.3577e-06 	9.41008e-05 	0 0 	0 	0
-0.027553 	6.71107e-05 	0 -0.0277606 	0.000189456 	0 -0.0278616 	0.000286377 	-9.90021e-25 -0.0278389 	0.000355056 	-3.07923e-24 -0.0276564 	0.000473825 	-2.54207e-23 -0.0273497 	0.000634664 	-6.47018e-23 -0.0274755 	0.000701458 	-3.19407e-22 -0.0275322 	0.000767502 	-4.78036e-22 -0.0274764 	0.000832181 	-4.86976e-22 -0.0272066 	0.000983659 	-3.35421e-22 -0.0268417 	0.00118186 	-1.00208e-22 -0.0268873 	0.00119848 	-1.75179e-22 -0.0269072 	0.00122447 	-2.32309e-22 -0.0268237 	0.00128616 	-2.20854e-22 -0.0264453 	0.00149092 	-1.11696e-22 -0.0260443 	0.00172326 	1.38647e-23 -0.0260172 	0.0016977 	1.38831e-22 -0.025987 	0.00167178 	2.63833e-22 -0.0258397 	0.00175157 	2.57047e-22 -0.0253895 	0.00200924 	1.37245e-22 -0.0249755 	0.00227248 	1.73665e-23 -0.0248869 	0.00221484 	-6.42669e-23 -0.0247919 	0.00215622 	-1.45902e-22 -0.024505 	0.00226813 	-1.45219e-22 -0.024061 	0.0025517 	-6.33262e-23 -0.0236559 	0.00284272 	1.88469e-23 -0.0235194 	0.00276457 	1.26495e-22 -0.0233752 	0.00268493 	2.34118e-22 -0.0228915 	0.00283991 	2.44393e-22 -0.0224711 	0.00312787 	1.81796e-22 -0.0220948 	0.00344358 	1.08986e-22 -0.0219249 	0.00335724 	2.21269e-22 -0.0215659 	0.00341576 	2.50181e-22 -0.0210949 	0.00357827 	2.21861e-22 -0.0206502 	0.00374966 	1.9256e-22 -0.0203176 	0.00408441 	7.47336e-23 -0.0201314 	0.00405096 	6.88911e-23 -0.0197635 	0.00418341 	9.60191e-23 -0.0194124 	0.00432255 	1.23571e-22 -0.019079 	0.00446868 	1.51565e-22 -0.0188489 	0.0045808 	1.72355e-22 -0.0187564 	0.00463193 	1.7439e-22 -0.0186658 	0.00468386 	1.76368e-22 -0.0185772 	0.00473657 	1.78288e-22 -0.0184905 	0.0047901 	1.80149e-22 -0.0183417 	0.00488922 	1.87371e-22 -0.0178733 	0.00502793 	1.69672e-22 -0.0174801 	0.00522715 	1.73855e-22 -0.0171161 	0.00544048 	1.75963e-22 -0.0167089 	0.0057222 	1.93359e-22 -0.0161686 	0.00614982 	2.45314e-22 -0.0157166 	0.00626605 	1.39001e-22 -0.0152927 	0.0063994 	3.19422e-23 -0.0147722 	0.00664316 	0 -0.0143446 	0.00704362 	3.50293e-23 -0.0139381 	0.00751507 	7.12734e-23 -0.0138058 	0.00758178 	3.05807e-23 -0.0136652 	0.00766065 	0 -0.013491 	0.00777009 	0 -0.0133237 	0.00788443 	0 -0.0131887 	0.00798492 	0 -0.0128806 	0.00822637 	0 -0.0125944 	0.00848593 	0 -0.0123309 	0.00876388 	0 -0.0120108 	0.00907236 	0 -0.0116573 	0.00946018 	0 -0.0113341 	0.00970479 	0 -0.0110412 	0.00997707 	0 -0.0107358 	0.0102574 	0 -0.0104492 	0.0105603 	0 -0.0102677 	0.0107978 	0 -0.0100565 	0.0110532 	0 -0.00985865 	0.0113226 	0 -0.00965931 	0.0115776 	-1.28688e-23 -0.00946136 	0.0118238 	-3.57609e-23 -0.00922835 	0.0121495 	-6.45048e-23 -0.00900196 	0.0124236 	-6.88478e-23 -0.00879516 	0.01272 	-7.39067e-23 -0.00861217 	0.0130227 	-9.68475e-23 -0.00847311 	0.0132583 	-2.18109e-22 -0.00836612 	0.0134724 	-3.21663e-22 -0.00787662 	0.0140428 	-5.05312e-22 -0.00744523 	0.0146652 	-6.58639e-22 -0.00714118 	0.0151118 	-4.36755e-22 -0.00687015 	0.015605 	-2.18405e-22 -0.00673097 	0.0162099 	3.95177e-23 -0.00665452 	0.0163763 	1.25682e-22 -0.00659138 	0.0165105 	1.54682e-22 -0.00653978 	0.0166162 	1.33557e-22 -0.00648935 	0.0167237 	1.12748e-22 -0.00643207 	0.0168507 	8.89211e-23 -0.00622582 	0.0172888 	9.14753e-23 -0.00603952 	0.0177604 	9.49173e-23 -0.00587204 	0.0182635 	9.91932e-23 -0.005806 	0.0186791 	1.09302e-22 -0.0059062 	0.018873 	1.28431e-22 -0.00538888 	0.0194507 	8.16919e-23 -0.00491209 	0.0201117 	4.22169e-23 -0.00483104 	0.0208433 	2.05589e-22 -0.00503804 	0.0211703 	4.08599e-22 -0.00522446 	0.0214596 	5.96317e-22 -0.00469471 	0.0222583 	2.74405e-22 -0.00424778 	0.023058 	0 -0.00415504 	0.0233419 	0 -0.0042851 	0.023686 	3.18411e-25 -0.00453545 	0.0240288 	8.10073e-25 -0.0039978 	0.0250676 	7.25423e-26 -0.00386365 	0.025463 	0 -0.00377745 	0.0258068 	0 -0.00369587 	0.0261724 	0 -0.0038517 	0.0265431 	-1.40853e-22 -0.00358039 	0.0272074 	0 -0.00351876 	0.0274743 	0 -0.00345944 	0.0277534 	0 -0.00340237 	0.0280446 	0 -0.0033143 	0.0285303 	0 -0.00330031 	0.0286178 	0 -0.00328647 	0.0287061 	0 -0.00327277 	0.0287952 	0 -0.00325923 	0.0288851 	0 -0.00327366 	0.0288599 	0 -0.00315676 	0.0292782 	0 -0.00307781 	0.0297128 	0 -0.00300288 	0.0301721 	0 -0.00293181 	0.0306549 	0 -0.00303151 	0.0303978 	0 -0.00276207 	0.0310016 	0 -0.00268675 	0.031493 	0 -0.00261514 	0.0320099 	0 -0.00254707 	0.032551 	0 -0.0027791 	0.0316437 	0 -0.00242909 	0.0324808 	0 -0.00231065 	0.0330799 	0 -0.00224201 	0.0336475 	0 -0.00228341 	0.0336669 	0 -0.00252337 	0.0326049 	0 -0.00217458 	0.0335984 	0 -0.00195552 	0.0344511 	0 -0.00189043 	0.0350613 	0 -0.00203142 	0.0345198 	0 -0.00227474 	0.0333146 	0 -0.00193124 	0.0344611 	0 -0.00163268 	0.0356338 	7.31054e-38 -0.0015732 	0.0362782 	6.09359e-37 -0.00180101 	0.0351683 	1.14705e-36 -0.00204638 	0.0338254 	1.67777e-36 -0.00171148 	0.0351183 	1.08253e-36 -0.00138442 	0.0365453 	4.93509e-37 -0.00134745 	0.0370014 	7.53284e-40 -0.00160294 	0.0356266 	1.61459e-39 -0.00185165 	0.0341515 	2.46476e-39 -0.00152745 	0.0355832 	1.52353e-39 -0.00121064 	0.0371555 	5.91874e-40 -0.00118746 	0.037403 	-3.54362e-37 -0.00145136 	0.0359096 	-8.97488e-37 -0.00170858 	0.0343054 	-1.43392e-36 -0.00139563 	0.0358699 	-8.45611e-37 -0.0010898 	0.0375813 	-2.63132e-37 -0.00108142 	0.0376469 	0 -0.00136523 	0.0360356 	0 -0.00164188 	0.034297 	0 -0.00133908 	0.0359957 	0 -0.00104354 	0.0378494 	0 -0.00104464 	0.0377311 	0 -0.0013684 	0.0359908 	0 -0.00168336 	0.034095 	0 -0.00138872 	0.0359469 	0 -0.00110218 	0.0379664 	0 -0.00109362 	0.0376073 	0 -0.00148868 	0.0357022 	0 -0.00187089 	0.033592 	0 -0.00158392 	0.035653 	0 -0.001329 	0.0376272 	0 -0.00130438 	0.0369301 	0 -0.00174346 	0.0349351 	0 -0.00223206 	0.0324887 	0 -0.00195975 	0.0348913 	0 -0.00176594 	0.0362896 	0 -0.0017142 	0.0352264 	0 -0.00209134 	0.0331613 	0 -0.00272925 	0.0301432 	0 -0.00249908 	0.0331784 	0 -0.00233998 	0.033298 	0 -0.00221674 	0.0315444 	0 -0.00230096 	0.0293437 	0 -0.00311484 	0.0253507 	0 -0.00299846 	0.0295982 	0 -0.00269238 	0.0265768 	0 -0.00238631 	0.0235555 	0 -0.00208023 	0.0205342 	0 -0.00256819 	0.0155775 	0 -0.00246625 	0.017738 	0 -0.00194428 	0.0139838 	0 -0.00142231 	0.0102297 	0 -0.000900337 	0.0064755 	0 0 	0 	0
-0.0399954 	9.86752e-05 	0 -0.0399622 	0.000291794 	-2.87132e-23 -0.0398794 	0.000504989 	-6.55532e-23 -0.0398154 	0.000718707 	-1.02587e-22 -0.0397703 	0.000932945 	-1.39815e-22 -0.0397038 	0.00113948 	-1.77581e-22 -0.0395614 	0.00131874 	-2.24298e-22 -0.0393843 	0.00151885 	-2.33575e-22 -0.0392252 	0.00172039 	-2.41786e-22 -0.0390844 	0.00192338 	-2.48919e-22 -0.0390619 	0.00196093 	-2.50029e-22 -0.0390439 	0.00199464 	-2.51922e-22 -0.0390264 	0.00202839 	-2.53802e-22 -0.0390094 	0.00206218 	-2.55669e-22 -0.0389929 	0.00209602 	-2.57523e-22 -0.0389648 	0.0021358 	-2.60919e-22 -0.0387055 	0.00232606 	-2.1984e-22 -0.038459 	0.00251757 	-1.7909e-22 -0.0382312 	0.00271157 	-1.37986e-22 -0.0380224 	0.00290807 	-9.65223e-23 -0.0377223 	0.00316433 	-6.1062e-23 -0.0374299 	0.00334298 	-1.13598e-22 -0.0371277 	0.00352979 	-1.07344e-22 -0.0368443 	0.00372004 	-1.01723e-22 -0.03658 	0.00391377 	-9.67491e-23 -0.0360838 	0.00424939 	4.89401e-23 -0.035749 	0.0043902 	7.22565e-23 -0.0354124 	0.00457859 	9.33916e-23 -0.0350953 	0.00477152 	1.14902e-22 -0.0346991 	0.00502705 	1.18834e-22 -0.0340988 	0.00542414 	8.19862e-23 -0.0337117 	0.0055456 	4.70418e-23 -0.0333452 	0.00568726 	2.18115e-23 -0.0330166 	0.00589053 	3.17477e-23 -0.0324003 	0.00629273 	5.72929e-23 -0.031813 	0.00671594 	8.2733e-23 -0.0314033 	0.00683713 	4.47189e-23 -0.0310098 	0.00696456 	6.549e-24 -0.030391 	0.00725911 	0 -0.0298154 	0.00768731 	1.29607e-23 -0.0292717 	0.00814424 	2.61652e-23 -0.0288692 	0.00828296 	3.65017e-24 -0.028263 	0.00858558 	0 -0.027648 	0.00893594 	0 -0.0270718 	0.00930655 	0 -0.0265958 	0.0096548 	0 -0.0265807 	0.00966814 	0 -0.0265657 	0.0096815 	0 -0.0265507 	0.00969488 	0 -0.0265331 	0.00970969 	0 -0.0265102 	0.00972738 	0 -0.0258915 	0.0100917 	0 -0.0253195 	0.010487 	0 -0.0247887 	0.0109084 	0 -0.0242037 	0.0114033 	0 -0.0234767 	0.0120458 	0 -0.0228848 	0.0124131 	0 -0.0223171 	0.0128219 	0 -0.021628 	0.0133299 	0 -0.0210005 	0.0138825 	0 -0.0203979 	0.014522 	0 -0.0203885 	0.0145346 	0 -0.0203791 	0.0145472 	0 -0.0203695 	0.0145598 	0 -0.0203569 	0.0145727 	0 -0.0203442 	0.0145857 	0 -0.0196244 	0.015164 	0 -0.0189785 	0.0158083 	0 -0.0183787 	0.0165054 	1.08146e-24 -0.0177218 	0.0172189 	9.19778e-24 -0.0169482 	0.0182422 	1.99308e-23 -0.0168727 	0.018344 	1.99794e-23 -0.0167987 	0.0184473 	2.00346e-23 -0.016722 	0.0185441 	1.65283e-23 -0.0166408 	0.0186311 	7.84543e-24 -0.0165646 	0.0187155 	-4.40551e-25 -0.0158271 	0.0195042 	3.10046e-23 -0.0151653 	0.0203791 	6.62746e-23 -0.0145514 	0.0211899 	-7.42899e-24 -0.014047 	0.0220254 	-1.73567e-22 -0.0137231 	0.0227604 	-3.21005e-22 -0.0136183 	0.0229769 	-4.14126e-22 -0.0135159 	0.0231896 	-4.86617e-22 -0.013414 	0.0233549 	-4.01728e-22 -0.0133143 	0.0235228 	-3.17511e-22 -0.0132046 	0.0237145 	-2.2356e-22 -0.0128161 	0.0243535 	4.35996e-23 -0.0124626 	0.0250363 	3.03541e-22 -0.0121426 	0.0257605 	5.56458e-22 -0.0119335 	0.0262834 	4.07514e-22 -0.0117879 	0.0267063 	1.63552e-22 -0.0111946 	0.0276829 	-1.01574e-23 -0.0106502 	0.0287356 	-1.8637e-22 -0.0102975 	0.0294021 	1.52484e-22 -0.0101178 	0.0301107 	9.1717e-22 -0.0100368 	0.030792 	1.78282e-21 -0.00968997 	0.0316358 	2.47571e-21 -0.00945594 	0.0322085 	2.20907e-21 -0.00926222 	0.0327133 	1.66499e-21 -0.00907878 	0.0332372 	1.13272e-21 -0.00882017 	0.0340453 	3.56536e-22 -0.00875653 	0.0342684 	2.67449e-22 -0.00869432 	0.0344942 	1.78537e-22 -0.00863352 	0.0347228 	8.9798e-23 -0.00857597 	0.0349508 	2.76055e-24 -0.008625 	0.0349899 	2.88805e-24 -0.008199 	0.0358349 	-1.08965e-22 -0.00795543 	0.0367374 	-3.20298e-22 -0.00773178 	0.0376823 	-5.35527e-22 -0.00762059 	0.0384781 	-7.54197e-22 -0.00784786 	0.0386232 	-9.68036e-22 -0.00722878 	0.0396831 	-6.40824e-22 -0.00671679 	0.0408105 	-9.75496e-23 -0.00653346 	0.0419324 	1.26612e-21 -0.00681635 	0.0420925 	2.32415e-21 -0.00708324 	0.0422199 	3.34601e-21 -0.00645711 	0.0434936 	1.89444e-21 -0.00585598 	0.0448624 	4.62619e-22 -0.00571621 	0.0454894 	7.71785e-25 -0.00603106 	0.0456231 	3.46218e-24 -0.00633022 	0.0457186 	6.07791e-24 -0.00570107 	0.0472037 	2.59592e-24 -0.00521747 	0.048471 	0 -0.00512233 	0.0488418 	0 -0.0052772 	0.0490418 	-3.06264e-21 -0.00559998 	0.0490887 	-8.22225e-21 -0.00497238 	0.0507766 	-1.71563e-21 -0.00473917 	0.0515151 	0 -0.00464736 	0.0519148 	0 -0.00456747 	0.0523234 	-2.22556e-25 -0.00490585 	0.0523036 	-1.02417e-23 -0.00436434 	0.0539394 	0 -0.00427458 	0.0543421 	0 -0.00418707 	0.0547642 	0 -0.00410175 	0.0552052 	0 -0.00426035 	0.0553275 	2.39952e-21 -0.00391957 	0.0565021 	3.11041e-37 -0.00383679 	0.0569214 	9.11598e-37 -0.00375594 	0.0573594 	1.51113e-36 -0.00367697 	0.0578157 	2.10966e-36 -0.00368179 	0.0581473 	2.80643e-36 -0.0035533 	0.0586798 	3.05344e-36 -0.00351237 	0.0589209 	2.59956e-36 -0.00347196 	0.0591676 	2.14775e-36 -0.00343205 	0.0594198 	1.698e-36 -0.00338131 	0.0597516 	1.12159e-36 -0.00335403 	0.0599376 	8.85483e-37 -0.00332698 	0.0601263 	6.49507e-37 -0.00330018 	0.0603176 	4.13662e-37 -0.00327361 	0.0605114 	1.77949e-37 -0.00327967 	0.0604896 	4.36561e-39 -0.00319344 	0.0610305 	-4.64765e-37 -0.00314044 	0.0614752 	-9.96829e-37 -0.00308862 	0.0619339 	-1.52962e-36 -0.00303796 	0.0624064 	-2.06313e-36 -0.00309397 	0.0621215 	-2.59659e-36 -0.00295813 	0.0629884 	-2.00828e-36 -0.00293625 	0.0634521 	-1.42149e-36 -0.00291504 	0.0639242 	-8.35065e-37 -0.00289449 	0.0644046 	-2.48999e-37 -0.00304243 	0.0635532 	0 -0.002861 	0.0647909 	0 -0.00289029 	0.065292 	0 -0.00291946 	0.0657915 	0 -0.00294852 	0.0662897 	0 -0.00320002 	0.0648137 	0 -0.00295828 	0.0664879 	0 -0.00307048 	0.0670615 	0 -0.00318114 	0.0676169 	0 -0.0032935 	0.0681218 	0 -0.00367011 	0.0658972 	0 -0.00338314 	0.0679581 	0 -0.00356233 	0.068829 	0 -0.00380259 	0.0694907 	0 -0.00410256 	0.0692907 	0 -0.00458046 	0.0666709 	0 -0.00430815 	0.0690734 	0 -0.00444945 	0.0706442 	0 -0.00489139 	0.0714998 	0 -0.00543324 	0.0700944 	0 -0.00604641 	0.0667797 	0 -0.00581624 	0.0698149 	0 -0.00576 	0.0726504 	0 -0.00650493 	0.0738571 	0 -0.00729088 	0.0699839 	0 -0.00803529 	0.0653966 	0 -0.0079201 	0.0696809 	0 -0.00783046 	0.0741788 	0 -0.0083881 	0.0737846 	0 -0.00923564 	0.0674428 	0 -0.00997791 	0.0605217 	0 -0.0101326 	0.0673516 	0 -0.0103269 	0.074274 	0 -0.00959708 	0.0690251 	0 -0.00985153 	0.0596232 	0 -0.0101488 	0.0486074 	0 -0.0108278 	0.0608532 	0 -0.00994047 	0.0579029 	0 -0.00843922 	0.0491582 	0 -0.00693797 	0.0404135 	0 -0.00561161 	0.0244152 	0 -0.00614919 	0.0361229 	0 -0.00499748 	0.0293573 	0 -0.00384578 	0.0225917 	0 -0.00269407 	0.0158261 	0 0 	0 	0