# vtk DataFile Version 2.0
track0
ASCII
DATASET POLYDATA
POINTS 41197 float
0.05 8.57988e-20 2.57396e-18
0.05 0.00217391 -1.05592e-17
0.05 0.00217391 -1.05592e-17
0.05 0.00217391 -1.05592e-17
0.05 0.00217391 -1.05592e-17
0.05 0.00217391 -1.05592e-17
0.05 0.00217391 -1.38778e-17
0.0493333 0.00217507 -5.27356e-18
0.0486667 0.00217727 -4.71845e-18
0.048 0.00218104 -5.42308e-18
0.0473334 0.00218797 -5.72538e-18
0.0466667 0.00219748 -6.93889e-18
0.046 0.00220941 -7.35523e-18
0.0453333 0.00222078 -1.09634e-17
0.0446667 0.00223278 -8.63292e-18
0.0440001 0.00224779 -1.00067e-17
0.0433333 0.00226628 -6.93889e-18
0.0426667 0.00228861 -3.19189e-18
0.0419999 0.00230899 4.85305e-19
0.0413332 0.00232963 5.80562e-19
0.0406666 0.00235322 -1.83723e-18
0.04 0.0023808 -6.93889e-18
0.0393333 0.00241353 2.77556e-19
0.0386665 0.00244312 -2.63654e-18
0.0379997 0.00247346 -4.41613e-18
0.0373331 0.00250681 -6.80079e-20
0.0366667 0.00254402 0
0.036 0.00258759 2.77556e-19
0.0353331 0.00262707 -2.98118e-18
0.0346663 0.00266885 -2.59438e-19
0.0339997 0.00271382 -1.96021e-18
0.0333333 0.00276211 0
0.0326667 0.00281754 -2.77556e-19
0.0319998 0.00286989 -1.59553e-18
0.0313331 0.00292566 -9.56106e-18
0.0306668 0.002985 -1.47352e-17
0.03 0.00304812 -6.93889e-18
0.02945 0.00310516 -1.85969e-18
0.0289 0.00316191 -3.71933e-18
0.0283503 0.00322134 -1.36743e-19
0.0278009 0.00328353 -1.0684e-17
0.0273805 0.00333333 -1.48701e-17
0.0272378 0.00335084 -1.66146e-17
0.027095 0.00336855 -1.41956e-17
0.0269523 0.00338647 -2.01032e-17
0.0268096 0.0034046 -1.62963e-17
0.0266667 0.00342297 -2.19805e-17
0.026 0.00351159 -2.73103e-17
0.0253338 0.00360342 -2.98565e-17
0.0246682 0.00370007 -2.40805e-17
0.0240034 0.00380173 -2.12387e-17
0.0233333 0.00390956 -2.17763e-17
0.0226667 0.0040359 -1.57417e-17
0.0219994 0.004159 -1.94161e-17
0.0213331 0.0042874 -1.85248e-17
0.0206681 0.00442194 -2.04794e-17
0.02 0.00457368 -2.10672e-17
0.0193333 0.0047527 -2.04273e-17
0.0186665 0.00493108 -2.75006e-17
0.0179995 0.00510877 -2.88717e-17
0.0173359 0.00529908 -2.24982e-17
0.0166667 0.00552054 -3.19189e-17
0.0160619 0.00574976 -2.62449e-17
0.015458 0.00598121 -3.18157e-17
0.0148583 0.00622344 -2.21312e-17
0.0142657 0.00648231 -2.26851e-17
0.0138757 0.00666667 -2.31077e-17
0.0137672 0.00672073 -2.57026e-17
0.0136591 0.00677554 -2.41348e-17
0.0135514 0.00683111 -1.97921e-17
0.0134441 0.00688744 -2.046e-17
0.0133333 0.00694689 -1.712e-17
0.0126667 0.00731386 -2.53639e-17
0.0120123 0.00770243 -2.25416e-17
0.0113733 0.00811562 -2.07455e-17
0.0107515 0.00855435 -1.88768e-17
0.01 0.009145 -1.38778e-17
0.00980928 0.009316 -1.20136e-17
0.00962021 0.00948882 -1.15413e-17
0.00943281 0.00966346 -1.80702e-17
0.00924714 0.00983994 -1.2289e-17
0.00908207 0.01 -6.93889e-18
0.00859899 0.0104769 -1.26866e-17
0.00813904 0.0109761 -1.26284e-17
0.00770372 0.0114969 -1.38059e-17
0.00729205 0.0120366 -1.55347e-17
0.00666667 0.0129284 -1.80411e-17
0.00661692 0.0130094 -2.22873e-17
0.00656747 0.0130906 -1.68185e-17
0.00651832 0.0131719 -2.24515e-17
0.00646947 0.0132534 -1.35494e-17
0.00642175 0.0133333 -1.94289e-17
0.00602455 0.014 -1.56819e-17
0.00566367 0.014687 -1.75199e-17
0.00533343 0.0153893 -1.89429e-17
0.00502995 0.0161035 -2.06768e-17
0.00479313 0.0166667 -9.88426e-18
0.0045149 0.0173333 -1.30079e-17
0.00427613 0.0180151 -8.43659e-18
0.00406345 0.0187055 -1.06577e-17
0.0038616 0.0193991 -1.48128e-17
0.00369637 0.02 -1.19541e-17
0.00362376 0.0202609 -1.81675e-17
0.00355694 0.0205233 -1.7889e-17
0.003492 0.0207862 -1.63021e-17
0.00342853 0.0210495 -1.71458e-17
0.00333333 0.0214541 -1.86926e-17
0.00324813 0.0218299 -8.46856e-18
0.00316552 0.0222064 -1.27695e-17
0.00308541 0.0225833 -1.01273e-17
0.00300771 0.0229608 3.62107e-18
0.00293341 0.0233333 1.38778e-18
0.00279602 0.024 9.71445e-19
0.00267403 0.0246697 5.40736e-18
0.00255973 0.0253407 8.17746e-18
0.00245253 0.0260128 1.16775e-17
0.00234968 0.0266667 6.93889e-18
0.00223367 0.0273333 1.83187e-17
0.00213648 0.028003 1.89507e-17
0.00205482 0.0286747 1.90345e-17
0.00197886 0.0293472 1.43987e-17
0.00189391 0.03 1.11022e-17
0.00179447 0.0306667 1.20737e-17
0.00171506 0.031336 1.6857e-17
0.00165468 0.0320073 1.68538e-17
0.00159639 0.0326789 1.26708e-17
0.00152594 0.0333333 1.33757e-17
0.00143988 0.034 1.23275e-17
0.00137524 0.0346691 1.43611e-17
0.00133033 0.0353398 1.54421e-17
0.00128635 0.0360105 1.90907e-17
0.00122835 0.0366667 1.87711e-17
0.00115343 0.0373333 1.33447e-17
0.0011015 0.0380022 1.51349e-17
0.00106361 0.038672 1.64363e-17
0.00102573 0.0393418 1.62245e-17
0.000978852 0.04 1.43293e-17
0.00091346 0.0406667 1.30505e-17
0.000872971 0.0413353 2.08927e-17
0.00084022 0.0420044 1.81726e-17
0.000807469 0.0426734 2.21033e-17
0.000770879 0.0433333 2.30024e-17
0.000713787 0.044 1.75463e-17
0.000683876 0.0446684 2.46768e-17
0.000655585 0.0453369 2.19903e-17
0.000627293 0.0460055 3.02445e-17
0.00059931 0.0466667 3.09209e-17
0.000549511 0.0473333 3.11599e-17
0.000525117 0.0480014 3.81244e-17
0.000500722 0.0486695 4.55838e-17
0.000476328 0.0493376 4.13488e-17
0.00045214 0.05 3.53293e-17
0.00040873 0.0506667 4.51854e-17
0.000387707 0.0513344 4.45977e-17
0.000366684 0.0520022 4.41972e-17
0.000345661 0.0526699 3.92687e-17
0.000324774 0.0533333 3.55414e-17
0.000286845 0.054 4.29598e-17
0.000268634 0.0546675 4.34078e-17
0.000250422 0.055335 3.7606e-17
0.00023221 0.0560025 3.927e-17
0.000214088 0.0566667 3.71135e-17
0.000180623 0.0573333 3.82795e-17
0.000164548 0.0580006 3.24786e-17
0.000148473 0.058668 3.96883e-17
0.000132398 0.0593353 3.64954e-17
0.000116385 0.06 3.8664e-17
9.31084e-05 0.0605128 3.36587e-17
8.16998e-05 0.061026 3.48793e-17
7.02912e-05 0.0615392 3.57529e-17
5.88827e-05 0.0620524 3.23174e-17
3.04067e-05 0.0633333 3.32561e-17
2.43254e-05 0.0634744 4.55575e-17
2.11797e-05 0.0636156 4.3109e-17
1.8034e-05 0.0637568 4.64719e-17
1.48883e-05 0.063898 4.74062e-17
0 0.0645663 4.22988e-17
0.05 0.00434783 5.94331e-18
0.0493333 0.0043488 7.32948e-18
0.0486667 0.00435282 7.32277e-18
0.048 0.00435923 4.71838e-18
0.0473334 0.00436731 1.0326e-17
0.0466667 0.0043783 1.00559e-17
0.046 0.00439331 9.33701e-18
0.0453334 0.00440997 1.13909e-17
0.0446668 0.00442827 9.92343e-18
0.0440003 0.0044482 6.55758e-18
0.0433333 0.00447203 6.19744e-18
0.0426667 0.00450107 1.12482e-17
0.042 0.00453056 1.31793e-17
0.0413334 0.00456076 1.47797e-17
0.0406669 0.00459259 1.49397e-17
0.04 0.00463002 1.24123e-17
0.0393333 0.00467396 1.2686e-17
0.0386666 0.00471735 9.49127e-18
0.0379999 0.00476019 1.02173e-17
0.0373333 0.00480531 2.07701e-17
0.0366667 0.00485801 2.41436e-17
0.036 0.00491861 2.4926e-17
0.0353332 0.00497793 1.7763e-17
0.0346663 0.00503595 1.89311e-17
0.0339998 0.00509767 2.1554e-17
0.0333333 0.00516838 2.498e-17
0.0326667 0.00524852 1.83187e-17
0.0319998 0.00532697 1.75559e-17
0.0313327 0.00540368 1.60454e-17
0.0306664 0.00548641 1.61902e-17
0.03 0.00557928 6.93889e-18
0.0293333 0.0056833 6.52256e-18
0.0286664 0.00578555 8.3312e-19
0.028 0.0058912 -6.00989e-18
0.0273348 0.00600416 -6.00258e-18
0.0266667 0.00612561 -4.16334e-18
0.0261291 0.00623382 -1.02069e-17
0.0255915 0.00634214 -1.48628e-17
0.025055 0.00645589 -1.98241e-17
0.0245198 0.00657531 -1.76052e-17
0.0241307 0.00666667 -1.9369e-17
0.0239712 0.00670552 -1.21645e-17
0.0238119 0.00674496 -1.88381e-17
0.0236527 0.00678497 -1.71852e-17
0.0234937 0.00682558 -1.96959e-17
0.0233333 0.00686717 -2.11506e-17
0.0226667 0.00704499 -1.58956e-17
0.0220025 0.00723194 -1.48192e-17
0.0213415 0.00742971 -1.12206e-17
0.020684 0.0076388 -1.02754e-17
0.02 0.00787305 -1.91909e-17
0.0193333 0.00812661 -2.34148e-17
0.0186708 0.00839069 -2.30303e-17
0.0180127 0.0086659 -2.44071e-17
0.0173621 0.00895822 -2.60207e-17
0.0166667 0.00929933 -2.35922e-17
0.0164063 0.00943946 -2.68013e-17
0.0161471 0.0095816 -2.82781e-17
0.0158891 0.00972598 -2.64607e-17
0.0156328 0.00987335 -2.32583e-17
0.0154184 0.01 -2.498e-17
0.0150014 0.0102521 -2.53998e-17
0.0145905 0.0105139 -2.36042e-17
0.014186 0.0107857 -2.98695e-17
0.0137884 0.0110674 -2.6042e-17
0.0133333 0.0114098 -2.17766e-17
0.0128571 0.0117945 -2.71609e-17
0.0123912 0.0121916 -3.07124e-17
0.011936 0.012601 -2.19591e-17
0.0114924 0.0130229 -2.16239e-17
0.0111839 0.0133333 -2.70953e-17
0.0109471 0.0135813 -2.61171e-17
0.0107157 0.0138343 -2.44989e-17
0.0104898 0.0140922 -2.59197e-17
0.0102692 0.0143547 -2.58092e-17
0.01 0.0146885 -3.36638e-17
0.00969677 0.0150841 -2.96483e-17
0.00940273 0.0154867 -2.73625e-17
0.00911783 0.0158957 -1.86537e-17
0.0088416 0.0163106 -1.74998e-17
0.00861275 0.0166667 -1.80411e-17
0.00822354 0.0172902 -1.7448e-17
0.00786203 0.0179303 -2.30688e-17
0.00752701 0.0185845 -1.84545e-17
0.00721054 0.019248 -1.71441e-17
0.00687608 0.02 -1.7518e-17
0.0068342 0.0201007 -1.90104e-17
0.00679296 0.0202017 -1.59206e-17
0.00675225 0.0203029 -1.59445e-17
0.00671196 0.0204043 -1.39738e-17
0.00666667 0.0205196 -5.64087e-18
0.00644866 0.0210824 2.70376e-18
0.00624214 0.0216494 -3.51253e-18
0.00604645 0.0222203 3.13047e-18
0.00586095 0.0227946 1.03624e-17
0.00569292 0.0233333 6.93889e-18
0.00548361 0.024 8.60423e-18
0.00529674 0.0246733 1.02585e-17
0.00513121 0.0253522 1.03633e-17
0.00497355 0.0260329 6.53331e-18
0.00482291 0.0266667 8.57818e-18
0.00466085 0.0273333 9.21421e-18
0.00451977 0.0280048 7.88533e-18
0.00439538 0.0286795 9.48498e-18
0.00427516 0.0293549 9.16781e-18
0.00415935 0.03 1.39996e-18
0.0040345 0.0306667 3.68955e-18
0.00392882 0.0313366 8.17317e-18
0.00382753 0.0320073 8.10636e-18
0.00372985 0.0326785 1.35806e-17
0.00363804 0.0333333 1.47581e-17
0.00357709 0.0337598 1.21003e-17
0.00352123 0.0341869 1.42924e-17
0.00346673 0.0346142 1.02376e-17
0.00341358 0.0350417 1.33747e-17
0.00333333 0.0357035 1.80411e-17
0.00331087 0.0358961 1.52282e-17
0.00328865 0.0360888 1.38034e-17
0.00326668 0.0362815 1.09912e-17
0.00324494 0.0364742 1.37306e-17
0.00322348 0.0366667 1.80411e-17
0.00314855 0.0373333 1.48492e-17
0.00307777 0.0380005 2.34527e-17
0.00300986 0.0386679 1.61146e-17
0.00294471 0.0393356 2.01695e-17
0.00288254 0.04 1.11022e-17
0.00281715 0.0406667 1.48492e-17
[...]
POINT_DATA 41197
 FIELD attributes 1
U 3 41197 float
-6.41098e-19 	-1.67017e-21 	0
-0.0151361 	2.62227e-05 	0 -0.0151361 	2.62227e-05 	0 -0.0151361 	2.62227e-05 	0 -0.0151361 	2.62227e-05 	0 -0.0151361 	2.62227e-05 	0 -0.0151361 	2.62227e-05 	0 -0.0154688 	5.09906e-05 	0 -0.0157054 	8.88303e-05 	-4.07416e-25 -0.0156655 	0.000163021 	-1.94831e-24 -0.0154128 	0.000219708 	-3.49642e-24 -0.0150894 	0.000269994 	-5.05062e-24 -0.0154133 	0.000263065 	1.9772e-22 -0.0155954 	0.000280566 	3.33214e-22 -0.0154954 	0.000348946 	3.29178e-22 -0.0152622 	0.0004233 	1.96812e-22 -0.0149674 	0.000501368 	-6.40819e-24 -0.0152689 	0.000466649 	4.16739e-23 -0.0153598 	0.000475516 	6.70041e-23 -0.0152108 	0.000538331 	6.44701e-23 -0.015007 	0.000620861 	3.9069e-23 -0.0147519 	0.000724202 	-1.01436e-23 -0.0150201 	0.000666543 	-7.44262e-24 -0.0149905 	0.000682175 	-2.3875e-23 -0.0148062 	0.000740569 	-5.12764e-23 -0.014623 	0.000816605 	-7.94967e-23 -0.0144155 	0.000942036 	-1.09892e-22 -0.0146426 	0.000866903 	-8.29763e-23 -0.0144731 	0.000906783 	-7.96339e-23 -0.0142683 	0.000962623 	-7.94732e-23 -0.0140797 	0.00102023 	-7.95727e-23 -0.013925 	0.00115787 	-1.04617e-22 -0.0140236 	0.00110079 	-1.86708e-22 -0.0137967 	0.00115426 	-1.50183e-22 -0.0135854 	0.00120982 	-1.13085e-22 -0.0133904 	0.00126758 	-7.53919e-23 -0.0132542 	0.00137474 	1.06487e-23 -0.0132081 	0.00136287 	-4.61069e-23 -0.0130241 	0.00140788 	-3.28341e-23 -0.0128505 	0.00145462 	-1.88948e-23 -0.0126879 	0.00150315 	-4.2652e-24 -0.0125721 	0.00154174 	7.48266e-24 -0.0125355 	0.00155553 	1.1698e-23 -0.0124998 	0.00156946 	1.59654e-23 -0.0124648 	0.00158353 	2.02852e-23 -0.0124307 	0.00159774 	2.46578e-23 -0.0123603 	0.00164304 	9.08099e-24 -0.0121232 	0.00167096 	6.74691e-24 -0.0119208 	0.00173104 	7.66446e-24 -0.0117344 	0.00179439 	8.55152e-24 -0.0115647 	0.00186115 	9.40678e-24 -0.0112086 	0.00212402 	5.09793e-23 -0.0108606 	0.00200359 	3.77483e-22 -0.0106731 	0.00205695 	4.63291e-22 -0.0105117 	0.00212638 	5.34946e-22 -0.0102493 	0.00232809 	4.35506e-22 -0.00991672 	0.00266287 	1.79776e-22 -0.00961169 	0.00257115 	4.43938e-22 -0.00930505 	0.00247876 	7.08083e-22 -0.00899401 	0.00257958 	7.22194e-22 -0.00872748 	0.00288789 	4.90127e-22 -0.00850773 	0.00322476 	2.59235e-22 -0.00828549 	0.00317544 	4.62205e-22 -0.00800489 	0.00323349 	4.97744e-22 -0.00770813 	0.00336676 	4.31219e-22 -0.00744488 	0.00351948 	3.61343e-22 -0.00729329 	0.00363509 	3.12391e-22 -0.00724599 	0.00367448 	2.98594e-22 -0.00720014 	0.00371482 	2.84652e-22 -0.00715575 	0.00375611 	2.70566e-22 -0.00709797 	0.00380921 	2.68973e-22 -0.00703245 	0.0038711 	2.73572e-22 -0.0066308 	0.00393764 	1.81684e-22 -0.0063651 	0.00411559 	9.82129e-23 -0.00612903 	0.00432453 	1.91841e-23 -0.00586063 	0.00460617 	2.60559e-23 -0.00558356 	0.00500619 	3.2094e-23 -0.00552215 	0.00504757 	1.85161e-23 -0.00546385 	0.00509186 	4.93174e-24 -0.00540773 	0.00514005 	2.98704e-23 -0.00535428 	0.00519178 	7.67696e-23 -0.00530921 	0.00524091 	1.18877e-22 -0.00500385 	0.00543108 	1.19681e-22 -0.00473126 	0.00566057 	1.14596e-22 -0.00449847 	0.00589782 	1.03574e-22 -0.0043038 	0.00613709 	8.70983e-23 -0.00403783 	0.00657262 	5.27709e-23 -0.00402122 	0.00660053 	8.73881e-23 -0.00400498 	0.00662896 	1.21708e-22 -0.00398913 	0.00665788 	1.55732e-22 -0.00398938 	0.00667919 	8.31306e-23 -0.00399147 	0.00669935 	3.92685e-25 -0.00360845 	0.00686923 	-6.69253e-22 -0.00339759 	0.00722498 	-1.10682e-21 -0.00324569 	0.00763853 	-1.48314e-21 -0.00333549 	0.00793247 	-1.17562e-21 -0.00340913 	0.0081686 	-9.32752e-22 -0.00298595 	0.00852606 	-6.1355e-22 -0.00272208 	0.00883617 	-3.59742e-22 -0.00262982 	0.00903682 	-1.94832e-22 -0.00254714 	0.00926295 	-2.50646e-23 -0.00267768 	0.0096213 	1.67133e-23 -0.00251182 	0.00986491 	1.35997e-24 -0.00246345 	0.00997237 	0 -0.00242787 	0.0100709 	0 -0.00239383 	0.0101741 	0 -0.00234389 	0.0103399 	0 -0.00230186 	0.0104888 	0 -0.00226249 	0.0106465 	0 -0.0022257 	0.0108126 	0 -0.00219137 	0.010987 	0 -0.00225358 	0.0109352 	0 -0.00200977 	0.011032 	0 -0.00193751 	0.011375 	0 -0.00187426 	0.011752 	0 -0.00188327 	0.0119724 	0 -0.00204473 	0.0117496 	0 -0.00172691 	0.0118991 	0 -0.00148195 	0.0121907 	0 -0.00143546 	0.0127065 	0 -0.00162458 	0.0124856 	0 -0.00181225 	0.0121498 	0 -0.00147445 	0.0124285 	0 -0.00115485 	0.0128394 	0 -0.00112347 	0.0129421 	0 -0.00135455 	0.0125849 	0 -0.00156577 	0.0121284 	0 -0.00121266 	0.012552 	0 -0.000880572 	0.01315 	0 -0.00083818 	0.0127839 	0 -0.00109061 	0.0123379 	0 -0.00132143 	0.0117583 	0 -0.000957977 	0.0123387 	0 -0.000717625 	0.012688 	0 -0.000692944 	0.0122516 	0 -0.000834668 	0.0117196 	0 -0.00108095 	0.0110203 	0 -0.000712433 	0.0117651 	0 -0.000576028 	0.0117676 	0 -0.000554417 	0.0113261 	0 -0.000599402 	0.0108101 	0 -0.000856537 	0.0100019 	0 -0.00048836 	0.0109137 	0 -0.000447259 	0.0105683 	0 -0.000428756 	0.0101311 	0 -0.000410253 	0.00969391 	0 -0.000657629 	0.00880373 	0 -0.000349168 	0.0095626 	0 -0.000333667 	0.00913809 	0 -0.000318167 	0.00871359 	0 -0.000302667 	0.00828908 	0 -0.000482107 	0.0074038 	0 -0.000248265 	0.00788563 	0 -0.000235495 	0.00748004 	0 -0.000222726 	0.00707444 	0 -0.000209956 	0.00666885 	0 -0.000332738 	0.00584845 	2.89163e-37 -0.000165174 	0.00605389 	0 -0.000154687 	0.00566953 	0 -0.0001442 	0.00528516 	0 -0.000133713 	0.0049008 	0 -0.000210381 	0.00419103 	2.9195e-40 -9.93538e-05 	0.00412444 	0 -9.05116e-05 	0.00375738 	0 -8.16694e-05 	0.00339031 	0 -7.28272e-05 	0.00302325 	0 -0.000111395 	0.00245403 	-1.03465e-37 -5.07223e-05 	0.00228166 	0 -4.45073e-05 	0.00200209 	0 -3.82923e-05 	0.00172252 	0 -3.20773e-05 	0.00144295 	0 -2.95725e-05 	0.000686134 	0 -1.41903e-05 	0.000636925 	0 -1.23552e-05 	0.000554559 	0 -1.05202e-05 	0.000472194 	0 -8.6851e-06 	0.000389828 	0 0 	0 	0
-0.0294356 	4.28256e-05 	0 -0.0296557 	0.00017915 	0 -0.0297636 	0.00028608 	-7.21302e-25 -0.0297417 	0.000360563 	-2.23875e-24 -0.029555 	0.000487226 	-1.84543e-23 -0.0292387 	0.000658174 	-4.70957e-23 -0.02937 	0.000734156 	-2.32963e-22 -0.0294285 	0.000807897 	-3.47681e-22 -0.0293708 	0.000878006 	-3.53801e-22 -0.029092 	0.00103938 	-2.40048e-22 -0.0287126 	0.001251 	-6.22735e-23 -0.0287564 	0.00127215 	-7.79934e-23 -0.0287732 	0.00130315 	-9.0995e-23 -0.0286852 	0.00136993 	-9.3959e-23 -0.0282922 	0.00158812 	-6.05544e-23 -0.0278736 	0.00183695 	-2.06321e-23 -0.0278379 	0.00181174 	-3.17636e-23 -0.0277991 	0.00178618 	-4.2893e-23 -0.0276453 	0.0018715 	-6.4577e-23 -0.0271735 	0.00214804 	-7.16546e-23 -0.0267406 	0.00243054 	-7.84073e-23 -0.0266377 	0.00236982 	-2.5736e-22 -0.0265281 	0.00230808 	-4.36398e-22 -0.0262249 	0.00242837 	-4.22126e-22 -0.0257597 	0.00273312 	-2.14885e-22 -0.0253363 	0.00304588 	-7.103e-24 -0.0251812 	0.0029622 	1.50497e-22 -0.0250181 	0.00287694 	3.08034e-22 -0.0245036 	0.00304231 	3.20902e-22 -0.024063 	0.00335352 	2.35539e-22 -0.0236706 	0.00369314 	1.37683e-22 -0.0234796 	0.00359994 	2.74195e-22 -0.023094 	0.00366108 	3.0965e-22 -0.0225905 	0.00383595 	2.73854e-22 -0.0221155 	0.00402041 	2.36869e-22 -0.0217706 	0.0043821 	9.14715e-23 -0.0215643 	0.00434506 	8.37406e-23 -0.0211683 	0.00448838 	1.14275e-22 -0.0207909 	0.00463901 	1.45319e-22 -0.0204329 	0.0047973 	1.76891e-22 -0.0201869 	0.00491848 	2.00304e-22 -0.0200906 	0.00497236 	2.02179e-22 -0.0199964 	0.00502707 	2.0399e-22 -0.0199041 	0.00508259 	2.05736e-22 -0.019814 	0.00513895 	2.07418e-22 -0.0196594 	0.00524365 	2.15542e-22 -0.0191582 	0.00539289 	1.95392e-22 -0.0187391 	0.00560656 	1.99643e-22 -0.0183515 	0.0058354 	2.01529e-22 -0.0179201 	0.00613755 	2.20756e-22 -0.0173484 	0.00659828 	2.79945e-22 -0.0168624 	0.0067209 	1.58827e-22 -0.0164067 	0.00686188 	3.68629e-23 -0.0158513 	0.00712215 	0 -0.0154014 	0.00755396 	3.97854e-23 -0.0149743 	0.00806079 	8.0496e-23 -0.0148313 	0.00813154 	3.44897e-23 -0.0146797 	0.00821572 	0 -0.0144932 	0.0083335 	0 -0.0143141 	0.0084566 	0 -0.0141697 	0.00856483 	0 -0.0138438 	0.00882208 	0 -0.0135413 	0.00909855 	0 -0.0132629 	0.00939453 	0 -0.0129239 	0.00972438 	0 -0.0125501 	0.0101383 	0 -0.0122015 	0.0103993 	0 -0.0118862 	0.0106905 	0 -0.0115567 	0.0109923 	0 -0.0112484 	0.0113195 	0 -0.0110539 	0.0115759 	0 -0.010833 	0.0118447 	0 -0.0106259 	0.012128 	0 -0.0104162 	0.0123967 	-1.76382e-23 -0.0102069 	0.0126562 	-4.93066e-23 -0.00996182 	0.0129973 	-8.88434e-23 -0.0097123 	0.0132948 	-9.49009e-23 -0.00948494 	0.0136175 	-1.02011e-22 -0.00928446 	0.0139469 	-1.31931e-22 -0.00913098 	0.0142061 	-2.76425e-22 -0.00901387 	0.0144411 	-3.99346e-22 -0.00849714 	0.0150439 	-6.18831e-22 -0.00804057 	0.0157026 	-8.04189e-22 -0.00771554 	0.0161748 	-5.17839e-22 -0.00742548 	0.016696 	-2.36362e-22 -0.00723042 	0.0173887 	1.31655e-22 -0.0071618 	0.0175395 	2.27921e-22 -0.00710457 	0.0176608 	2.57086e-22 -0.00705728 	0.0177561 	2.27079e-22 -0.0070109 	0.0178528 	1.97407e-22 -0.00695924 	0.0179642 	1.64081e-22 -0.00672083 	0.018453 	1.51056e-22 -0.00650654 	0.0189823 	1.3941e-22 -0.00631497 	0.0195495 	1.29062e-22 -0.00624253 	0.0200156 	1.3222e-22 -0.00635372 	0.0202368 	1.56866e-22 -0.00579118 	0.020866 	9.86306e-23 -0.00526247 	0.0215826 	4.14462e-23 -0.00517401 	0.0223401 	1.74266e-22 -0.0053954 	0.0226982 	3.62842e-22 -0.00559451 	0.0230152 	5.37014e-22 -0.00501928 	0.0238871 	2.38248e-22 -0.00455729 	0.0247187 	0 -0.00445424 	0.0250276 	0 -0.0045591 	0.0253939 	2.94374e-25 -0.00482564 	0.0257671 	8.19387e-25 -0.00424316 	0.0269006 	3.42197e-26 -0.00412094 	0.0272842 	0 -0.00402468 	0.0276571 	0 -0.00393355 	0.0280543 	0 -0.00406626 	0.0284536 	-1.23585e-22 -0.00380558 	0.0290959 	0 -0.00374336 	0.029352 	0 -0.0036832 	0.0296192 	0 -0.00362504 	0.0298971 	0 -0.00353807 	0.0303435 	0 -0.00351455 	0.0304787 	0 -0.0034914 	0.0306159 	0 -0.0034686 	0.0307551 	0 -0.00344616 	0.0308962 	0 -0.00346773 	0.0308564 	0 -0.00332248 	0.0313114 	0 -0.00323331 	0.031777 	0 -0.00314854 	0.0322698 	0 -0.00306801 	0.0327889 	0 -0.00318319 	0.0324528 	0 -0.00288258 	0.0331216 	0 -0.00279679 	0.0336424 	0 -0.00271501 	0.0341913 	0 -0.00264543 	0.0347254 	0 -0.00288887 	0.0337336 	0 -0.00252069 	0.0346455 	0 -0.00238112 	0.0352917 	0 -0.00230189 	0.0358867 	0 -0.00234626 	0.0358573 	0 -0.00259294 	0.0347119 	0 -0.00223037 	0.0357885 	0 -0.00199382 	0.0367079 	0 -0.0019177 	0.0373374 	0 -0.00206075 	0.0367247 	0 -0.0023072 	0.0354321 	0 -0.001955 	0.0366666 	0 -0.00164652 	0.0379213 	7.59262e-38 -0.00157566 	0.0385737 	6.44388e-37 -0.00180111 	0.037384 	1.21444e-36 -0.00204551 	0.0359533 	1.77763e-36 -0.00170752 	0.0373352 	1.15029e-36 -0.00137697 	0.0388519 	5.29222e-37 -0.00132943 	0.039319 	7.80258e-40 -0.00157878 	0.0378569 	1.65956e-39 -0.00182206 	0.0362975 	2.5285e-39 -0.00150076 	0.0378146 	1.57374e-39 -0.0011862 	0.0394697 	6.2809e-40 -0.0011557 	0.0397399 	-3.92663e-37 -0.00140873 	0.0381637 	-9.68567e-37 -0.00165602 	0.0364823 	-1.53814e-36 -0.00135216 	0.0381243 	-9.18581e-37 -0.00105451 	0.0399065 	-3.04657e-37 -0.00104308 	0.0400139 	0 -0.00131156 	0.0383271 	0 -0.00157411 	0.0365221 	0 -0.00128669 	0.0382859 	0 -0.00100532 	0.0401933 	0 -0.00101 	0.0401441 	0 -0.00131464 	0.0383379 	0 -0.00161213 	0.0363893 	0 -0.00133924 	0.0382897 	0 -0.00107287 	0.0403407 	0 -0.00107933 	0.0400901 	0 -0.00145261 	0.0381292 	0 -0.0018154 	0.0359812 	0 -0.00155673 	0.0380702 	0 -0.00130624 	0.0403243 	0 -0.00128428 	0.0396836 	0 -0.00175762 	0.0375177 	0 -0.00222677 	0.0350469 	0 -0.00198975 	0.0374532 	0 -0.00180127 	0.0392496 	0 -0.00175468 	0.0382344 	0 -0.00220838 	0.035982 	0 -0.00282831 	0.0329424 	0 -0.00264076 	0.0359544 	0 -0.00249505 	0.0366667 	0 -0.00237889 	0.0349597 	0 -0.00259848 	0.0325103 	0 -0.00339233 	0.0284599 	0 -0.0033261 	0.0326943 	0 -0.00305583 	0.0305544 	0 -0.00275751 	0.0275715 	0 -0.00245919 	0.0245887 	0 -0.00312775 	0.0192263 	0 -0.00302853 	0.0218128 	0 -0.00238007 	0.0171423 	0 -0.00173161 	0.0124718 	0 -0.00108315 	0.00780134 	0 -7.42056e-05 	0.000356418 	0 -7.82018e-05 	0.000453975 	0 -6.1919e-05 	0.000359451 	0 -4.56362e-05 	0.000264926 	0 -2.93534e-05 	0.000170402 	0 0 	0 	0
-0.0427792 	4.84347e-05 	0 -0.0427479 	0.000258776 	-2.09184e-23 -0.0426657 	0.000490118 	-4.777e-23 -0.0426041 	0.000721971 	-7.47654e-23 -0.0425631 	0.000954331 	-1.01904e-22 -0.0424984 	0.00117735 	-1.29444e-22 -0.0423516 	0.00137158 	-1.59862e-22 -0.0421672 	0.0015887 	-1.6101e-22 -0.0420024 	0.00180734 	-1.61343e-22 -0.0418575 	0.0020275 	-1.60851e-22 -0.0418096 	0.00211267 	-1.60343e-22 -0.0417963 	0.00214031 	-1.60729e-22 -0.0417833 	0.00216796 	-1.6111e-22 -0.0417707 	0.00219565 	-1.61486e-22 -0.0417584 	0.00222335 	-1.61857e-22 -0.0417367 	0.00225583 	-1.63078e-22 -0.0414611 	0.00246185 	-1.34095e-22 -0.0412011 	0.00266941 	-1.05111e-22 -0.0409613 	0.00287961 	-7.59246e-23 -0.0407421 	0.0030925 	-4.65349e-23 -0.0404307 	0.00336698 	-2.25046e-23 -0.040119 	0.00356175 	-1.32389e-23 -0.039798 	0.00376382 	-4.9036e-24 -0.0394974 	0.00396958 	3.57825e-24 -0.0392177 	0.0041791 	1.22096e-23 -0.0386967 	0.00453778 	1.98287e-23 -0.0383382 	0.00469303 	1.99145e-22 -0.0379796 	0.00489634 	2.40741e-22 -0.037642 	0.00510452 	2.8355e-22 -0.0372263 	0.00537672 	2.6099e-22 -0.0365886 	0.00580403 	7.46982e-23 -0.0361723 	0.00593617 	4.74343e-23 -0.0357798 	0.00609153 	2.94877e-23 -0.0354296 	0.00631037 	4.13339e-23 -0.03478 	0.00673982 	7.33278e-23 -0.0341562 	0.00719526 	1.05557e-22 -0.0337146 	0.00732568 	5.7444e-23 -0.0332906 	0.00746283 	9.13357e-24 -0.032634 	0.00777673 	1.66671e-26 -0.0320244 	0.00824008 	1.63673e-23 -0.0314478 	0.00873176 	3.25655e-23 -0.0310137 	0.00887977 	4.97679e-24 -0.0303699 	0.0092013 	0 -0.0297122 	0.00957782 	0 -0.0290967 	0.00997609 	0 -0.0285443 	0.0103831 	0 -0.0285366 	0.01039 	0 -0.0285289 	0.010397 	0 -0.0285212 	0.010404 	0 -0.0285121 	0.0104117 	0 -0.0285003 	0.010421 	0 -0.0278427 	0.0108149 	0 -0.0272316 	0.0112389 	0 -0.0266651 	0.0116909 	0 -0.0260458 	0.0122196 	0 -0.0252684 	0.0129101 	0 -0.0246346 	0.0133015 	0 -0.0240322 	0.0137356 	0 -0.0232931 	0.0142799 	0 -0.0226206 	0.014872 	0 -0.0219278 	0.0156082 	0 -0.0219276 	0.0156085 	0 -0.0219274 	0.0156088 	0 -0.0219271 	0.0156092 	0 -0.0219268 	0.0156095 	0 -0.0219264 	0.0156098 	0 -0.0211662 	0.0162343 	0 -0.020474 	0.0169222 	0 -0.019837 	0.017669 	1.03251e-25 -0.019128 	0.0184331 	1.20406e-24 -0.0182964 	0.0195259 	2.65484e-24 -0.018205 	0.0196479 	2.66141e-24 -0.0181156 	0.0197719 	2.6691e-24 -0.0180228 	0.0198884 	-3.12905e-24 -0.0179244 	0.0199937 	-1.69983e-23 -0.0178328 	0.0200954 	-3.01624e-23 -0.0170572 	0.0209306 	-2.17339e-23 -0.0163606 	0.0218556 	-9.81e-24 -0.0157095 	0.0227132 	-4.41933e-23 -0.0151425 	0.0235803 	-1.17061e-22 -0.014749 	0.0244592 	-2.0802e-22 -0.0146546 	0.0246564 	-2.75622e-22 -0.0145619 	0.0248497 	-3.27827e-22 -0.0144683 	0.0249996 	-2.62913e-22 -0.0143764 	0.0251514 	-1.9844e-22 -0.0142768 	0.0253213 	-1.27711e-22 -0.01383 	0.0260356 	2.23259e-22 -0.0134253 	0.0268024 	5.62545e-22 -0.0130608 	0.0276189 	8.90494e-22 -0.0128221 	0.0282059 	6.15645e-22 -0.012656 	0.0286822 	2.19222e-22 -0.0120132 	0.0297468 	-1.13925e-22 -0.0114241 	0.0308946 	-4.51599e-22 -0.0110506 	0.0315868 	-5.72692e-23 -0.0108203 	0.0323501 	6.91365e-22 -0.0107275 	0.0330917 	1.65132e-21 -0.0103819 	0.0339373 	2.30138e-21 -0.0101462 	0.0345066 	2.06127e-21 -0.00994871 	0.0350081 	1.57102e-21 -0.00976084 	0.0355277 	1.09106e-21 -0.00950098 	0.0363088 	4.07081e-22 -0.00941274 	0.0366042 	3.05078e-22 -0.00932694 	0.0369043 	2.03331e-22 -0.00924352 	0.037209 	1.01835e-22 -0.00916565 	0.0375125 	2.85758e-24 -0.00922921 	0.0375649 	3.02486e-24 -0.00872528 	0.0384841 	-8.65747e-23 -0.00845623 	0.039464 	-2.97368e-22 -0.00820896 	0.0404905 	-5.12093e-22 -0.0081117 	0.0412971 	-7.30231e-22 -0.00834946 	0.04145 	-9.43094e-22 -0.00768035 	0.0426034 	-6.18233e-22 -0.00709176 	0.043837 	-1.54751e-22 -0.006913 	0.0449864 	1.24781e-21 -0.00720666 	0.0451483 	2.3646e-21 -0.00748369 	0.0452761 	3.44339e-21 -0.00680992 	0.0466565 	1.9183e-21 -0.0061629 	0.0481394 	4.141e-22 -0.00600468 	0.0487668 	6.6698e-25 -0.00632768 	0.0488912 	3.62436e-24 -0.00663472 	0.0489764 	6.50143e-24 -0.00596125 	0.0505764 	2.69461e-24 -0.00546249 	0.0518865 	0 -0.00535596 	0.0522784 	0 -0.00548898 	0.0524881 	-3.00596e-21 -0.00581561 	0.0525107 	-8.48213e-21 -0.00514791 	0.0543159 	-1.62279e-21 -0.00491078 	0.0550575 	0 -0.00480776 	0.0554747 	0 -0.00470738 	0.0559127 	0 -0.00504288 	0.0558529 	-1.07445e-23 -0.0044781 	0.0575604 	0 -0.00437727 	0.0579735 	0 -0.0042788 	0.0584075 	0 -0.00418261 	0.0588623 	0 -0.0043296 	0.0589605 	2.52624e-21 -0.00397 	0.0601826 	3.285e-37 -0.00387659 	0.060605 	9.61551e-37 -0.00378516 	0.0610476 	1.59349e-36 -0.00369566 	0.0615102 	2.22435e-36 -0.00369533 	0.061821 	2.96784e-36 -0.00354476 	0.0624231 	3.22858e-36 -0.00349149 	0.0626961 	2.68917e-36 -0.00343888 	0.0629769 	2.15268e-36 -0.00338695 	0.0632656 	1.6191e-36 -0.00331803 	0.0636639 	9.05792e-37 -0.00329442 	0.0638077 	7.1612e-37 -0.00327095 	0.0639532 	5.26531e-37 -0.00324762 	0.0641004 	3.37025e-37 -0.00322443 	0.0642491 	1.47601e-37 -0.00322466 	0.0642388 	4.47492e-39 -0.00314 	0.0647391 	-5.1329e-37 -0.00307801 	0.0651688 	-1.0782e-36 -0.0030172 	0.0656137 	-1.6439e-36 -0.00295754 	0.0660734 	-2.21037e-36 -0.00298974 	0.0658643 	-2.77692e-36 -0.00286845 	0.0666782 	-2.15736e-36 -0.00283902 	0.0671157 	-1.53915e-36 -0.00281026 	0.0675625 	-9.21333e-37 -0.00278215 	0.0680182 	-3.03922e-37 -0.00289976 	0.0672794 	0 -0.0027507 	0.0684419 	0 -0.00277456 	0.0689047 	0 -0.00279836 	0.0693664 	0 -0.00282208 	0.0698271 	0 -0.00303564 	0.0685209 	0 -0.00285142 	0.0700864 	0 -0.00296136 	0.0706086 	0 -0.0030699 	0.0711124 	0 -0.00317707 	0.0715983 	0 -0.00351133 	0.0695947 	0 -0.00325429 	0.0716787 	0 -0.00350138 	0.0723194 	0 -0.00374424 	0.0729131 	0 -0.00401359 	0.0730403 	0 -0.00447397 	0.0704154 	0 -0.00423695 	0.0728217 	0 -0.00450265 	0.0741001 	0 -0.00495316 	0.0748658 	0 -0.00546563 	0.073943 	0 -0.00606508 	0.0706422 	0 -0.00587753 	0.0736543 	0 -0.00602011 	0.076084 	0 -0.00677858 	0.0771684 	0 -0.00754485 	0.0740382 	0 -0.00828126 	0.0694756 	0 -0.00821502 	0.0737099 	0 -0.00816981 	0.0781248 	0 -0.00901408 	0.0783112 	0 -0.00984616 	0.0719555 	0 -0.0105821 	0.0650486 	0 -0.0107873 	0.0718072 	0 -0.0110465 	0.0789089 	0 -0.0104595 	0.0751684 	0 -0.0109317 	0.0648948 	0 -0.0112064 	0.0538258 	0 -0.0119264 	0.0659927 	0 -0.0113742 	0.0660292 	0 -0.00986715 	0.0572806 	0 -0.00836012 	0.048532 	0 -0.00706126 	0.0306518 	0 -0.00775202 	0.0453451 	0 -0.00629728 	0.0368356 	0 -0.00484253 	0.0283262 	0 -0.00338779 	0.0198167 	0 0 	0 	0