# vtk DataFile Version 2.0
track0
ASCII
DATASET POLYDATA
POINTS 41160 float
0.05 8.57988e-20 2.57396e-18
0.05 0.00217391 -1.05592e-17
0.05 0.00217391 -1.05592e-17
0.05 0.00217391 -1.05592e-17
0.05 0.00217391 -1.05592e-17
0.05 0.00217391 -1.05592e-17
0.05 0.00217391 -1.38778e-17
0.0493333 0.00217503 -5.27356e-18
0.0486667 0.0021772 -9.22873e-18
0.048 0.00218095 -9.41309e-18
0.0473334 0.00218787 -1.05824e-17
0.0466667 0.00219735 -6.93889e-18
0.046 0.00220926 -6.66134e-18
0.0453333 0.00222062 -7.14704e-18
0.0446667 0.0022326 -1.12353e-17
0.0440001 0.0022476 -1.41713e-17
0.0433333 0.00226608 -2.63678e-17
0.0426667 0.0022884 -2.1233e-17
0.0419999 0.00230877 -2.17192e-17
0.0413332 0.0023294 -2.16224e-17
0.0406666 0.00235299 -2.05719e-17
0.04 0.00238057 -2.498e-17
0.0393333 0.00241329 -2.1233e-17
0.0386665 0.00244288 -2.79635e-17
0.0379997 0.00247323 -3.11313e-17
0.0373331 0.00250657 -2.57396e-17
0.0366667 0.0025438 -2.22045e-17
0.036 0.00258737 -2.67841e-17
0.0353331 0.00262686 -2.76143e-17
0.0346663 0.00266864 -3.42621e-17
0.0339997 0.00271362 -3.79144e-17
0.0333333 0.00276191 -3.88578e-17
0.0326667 0.00281736 -4.32987e-17
0.0319998 0.00286972 -4.11472e-17
0.0313331 0.0029255 -4.9113e-17
0.0306668 0.00298486 -5.49811e-17
0.03 0.00304799 -4.30211e-17
0.0294499 0.00310506 -4.9044e-17
0.0288998 0.00316184 -5.02095e-17
0.02835 0.00322129 -5.30018e-17
0.0278005 0.00328351 -5.3706e-17
0.02738 0.00333333 -5.85864e-17
0.0272373 0.00335083 -5.26978e-17
0.0270947 0.00336854 -5.72175e-17
0.0269521 0.00338645 -6.45126e-17
0.0268095 0.00340457 -6.76444e-17
0.0266667 0.00342293 -7.05529e-17
0.026 0.00351158 -6.75559e-17
0.0253338 0.00360343 -6.73265e-17
0.0246682 0.0037001 -6.91834e-17
0.0240034 0.00380179 -6.77293e-17
0.0233333 0.00390965 -6.75731e-17
0.0226667 0.00403602 -7.05592e-17
0.0219994 0.00415916 -7.14581e-17
0.0213331 0.0042876 -7.19542e-17
0.0206681 0.00442217 -6.80114e-17
0.02 0.00457396 -6.33972e-17
0.0193333 0.00475302 -6.27578e-17
0.0186665 0.00493145 -6.86173e-17
0.0179995 0.00510919 -6.81621e-17
0.0173359 0.00529956 -6.48243e-17
0.0166667 0.00552108 -7.21645e-17
0.0160623 0.00575019 -6.64915e-17
0.0154588 0.00598153 -6.78959e-17
0.0148595 0.00622363 -7.07069e-17
0.0142672 0.00648234 -7.4037e-17
0.0138773 0.00666667 -6.75193e-17
0.0137685 0.00672088 -6.73381e-17
0.0136601 0.00677586 -7.40964e-17
0.0135521 0.00683159 -7.1141e-17
0.0134444 0.00688808 -7.10267e-17
0.0133333 0.00694771 -6.70814e-17
0.0126667 0.00731473 -7.39376e-17
0.0120123 0.00770331 -7.66664e-17
0.0113733 0.00811651 -7.63457e-17
0.0107514 0.00855522 -7.94165e-17
0.01 0.00914569 -7.35523e-17
0.00980937 0.00931655 -7.44639e-17
0.00962038 0.00948923 -8.09307e-17
0.00943307 0.00966372 -9.0234e-17
0.00924748 0.00984004 -8.2371e-17
0.00908243 0.01 -8.04912e-17
0.00859928 0.0104767 -8.2076e-17
0.00813923 0.0109757 -8.93027e-17
0.00770377 0.0114963 -9.60328e-17
0.00729196 0.0120358 -9.60246e-17
0.00666667 0.0129268 -9.71445e-17
0.00661667 0.0130081 -1.00003e-16
0.00656697 0.0130896 -1.01474e-16
0.00651758 0.0131713 -1.08495e-16
0.00646849 0.0132531 -1.09304e-16
0.00642055 0.0133333 -1.05471e-16
0.00602304 0.014 -1.01724e-16
0.00566189 0.014687 -1.10154e-16
0.00533142 0.0153894 -1.08807e-16
0.00502769 0.0161037 -1.12189e-16
0.00479079 0.0166667 -1.00096e-16
0.00451238 0.0173333 -1.01485e-16
0.00427348 0.0180152 -1.01391e-16
0.00406063 0.0187056 -1.01905e-16
0.00385864 0.0193992 -1.02244e-16
0.00369333 0.02 -1.00742e-16
0.00362133 0.0202587 -1.02798e-16
0.00355503 0.0205189 -1.10874e-16
0.00349058 0.0207796 -1.05129e-16
0.00342758 0.0210406 -9.69563e-17
0.00333333 0.0214406 -9.64474e-17
0.00324739 0.0218192 -1.01451e-16
0.00316408 0.0221983 -1.0159e-16
0.00308331 0.022578 -1.045e-16
0.003005 0.0229582 -1.00467e-16
0.00293014 0.0233333 -9.85323e-17
0.00279266 0.024 -9.20097e-17
0.00267065 0.0246697 -9.38189e-17
0.00255637 0.0253407 -9.9367e-17
0.0024492 0.0260129 -9.51897e-17
0.00234633 0.0266667 -9.29812e-17
0.00223026 0.0273333 -8.71525e-17
0.00213306 0.028003 -8.23572e-17
0.00205148 0.0286748 -7.98503e-17
0.00197562 0.0293472 -8.23935e-17
0.00189068 0.03 -7.91034e-17
0.00179124 0.0306667 -7.81319e-17
0.00171186 0.031336 -8.02875e-17
0.00165153 0.0320074 -8.27246e-17
0.0015933 0.0326789 -9.00299e-17
0.0015229 0.0333333 -9.34529e-17
0.00143687 0.034 -8.87768e-17
0.00137229 0.0346691 -8.79581e-17
0.00132748 0.0353398 -9.03713e-17
0.00128358 0.0360105 -8.98546e-17
0.00122566 0.0366667 -8.32262e-17
0.0011508 0.0373333 -8.86526e-17
0.00109897 0.0380022 -8.11381e-17
0.00106113 0.038672 -8.55654e-17
0.00102329 0.0393418 -8.7516e-17
0.00097651 0.04 -7.93418e-17
0.000911213 0.0406667 -7.50697e-17
0.000870845 0.0413353 -7.1391e-17
0.000838154 0.0420044 -6.85635e-17
0.000805462 0.0426734 -6.51567e-17
0.00076899 0.0433333 -6.65062e-17
0.000712021 0.044 -6.57175e-17
0.000682246 0.0446684 -6.76078e-17
0.00065403 0.0453369 -6.47459e-17
0.000625814 0.0460054 -6.0655e-17
0.000597905 0.0466667 -5.65069e-17
0.000548254 0.0473333 -5.43599e-17
0.00052395 0.0480014 -5.06915e-17
0.000499647 0.0486695 -5.53771e-17
0.000475343 0.0493375 -6.06529e-17
0.000451244 0.05 -5.48748e-17
0.000408006 0.0506667 -6.56622e-17
0.000387087 0.0513344 -5.87908e-17
0.000366168 0.0520021 -5.71107e-17
0.000345249 0.0526699 -5.44063e-17
0.000324464 0.0533333 -5.74393e-17
0.000286731 0.054 -5.86948e-17
0.000268635 0.0546675 -5.09611e-17
0.000250539 0.055335 -5.43343e-17
0.000232443 0.0560025 -5.57928e-17
0.000214436 0.0566667 -6.00316e-17
0.000181188 0.0573333 -6.33763e-17
0.000165241 0.0580006 -6.60548e-17
0.000149293 0.0586679 -6.78645e-17
0.000133346 0.0593352 -6.89758e-17
0.00011746 0.06 -7.23601e-17
9.3968e-05 0.0605216 -7.04115e-17
8.24719e-05 0.0610436 -7.12577e-17
7.09758e-05 0.0615656 -7.10632e-17
5.94796e-05 0.0620877 -7.0437e-17
3.20464e-05 0.0633333 -7.08301e-17
2.56372e-05 0.0634834 -6.78807e-17
2.23256e-05 0.0636335 -6.58037e-17
1.9014e-05 0.0637837 -6.58951e-17
1.57024e-05 0.0639338 -6.42518e-17
0 0.0646457 -6.16522e-17
0.05 0.00434783 5.94331e-18
0.0493333 0.00434874 4.55401e-18
0.0486667 0.00435273 -2.39152e-18
0.048 0.0043591 -4.64913e-18
0.0473334 0.00436714 1.99905e-18
0.0466667 0.0043781 1.03568e-18
0.046 0.00439306 -1.07092e-18
0.0453334 0.0044097 2.37083e-18
0.0446668 0.00442797 9.02868e-19
0.0440003 0.00444787 -3.85403e-18
0.0433333 0.00447167 5.50121e-18
0.0426667 0.00450069 7.77617e-18
0.042 0.00453016 1.24828e-17
0.0413334 0.00456034 1.54736e-17
0.0406669 0.00459216 1.63232e-17
0.04 0.00462957 2.14336e-17
0.0393333 0.00467349 1.61563e-17
0.0386666 0.00471686 1.40024e-17
0.0379999 0.00475969 1.42064e-17
0.0373333 0.00480481 1.93814e-17
0.0366667 0.0048575 1.54752e-17
0.036 0.00491808 1.49566e-17
0.0353332 0.00497739 1.11113e-17
0.0346663 0.00503541 9.86358e-18
0.0339998 0.00509713 1.01012e-17
0.0333333 0.00516783 0
0.0326667 0.00524797 7.21645e-18
0.0319998 0.00532641 1.26987e-17
0.0313327 0.00540312 1.19703e-17
0.0306664 0.00548585 7.86452e-18
0.03 0.00557871 4.16334e-18
0.0293333 0.00568273 7.21645e-18
0.0286664 0.00578498 4.99646e-18
0.028 0.00589062 9.28047e-19
0.0273348 0.00600357 9.67869e-19
0.0266667 0.00612503 1.38778e-18
0.0261285 0.00623335 -3.26709e-18
0.0255903 0.00634179 -2.37087e-18
0.0250533 0.00645567 -7.39276e-19
0.0245175 0.00657523 -7.89468e-18
0.0241281 0.00666667 -1.31197e-17
0.0239692 0.0067054 -1.77122e-17
0.0238104 0.00674472 -2.16111e-17
0.0236517 0.00678461 -1.44079e-17
0.0234932 0.00682509 -1.55317e-17
0.0233333 0.00686655 -2.53129e-17
0.0226667 0.00704435 -2.97723e-17
0.0220025 0.00723129 -2.86959e-17
0.0213415 0.00742905 -2.26698e-17
0.020684 0.00763812 -2.51951e-17
0.02 0.00787234 -2.92541e-17
0.0193333 0.00812587 -3.66005e-17
0.0186708 0.00838992 -3.69081e-17
0.0180127 0.00866509 -3.65841e-17
0.0173621 0.00895736 -3.43459e-17
0.0166667 0.00929839 -3.747e-17
0.0164059 0.00943871 -3.65165e-17
0.0161463 0.00958104 -2.96645e-17
0.0158879 0.00972562 -2.71526e-17
0.0156312 0.0098732 -2.60312e-17
0.0154165 0.01 -1.80411e-17
0.0149999 0.0102518 -2.99355e-17
0.0145893 0.0105134 -2.29083e-17
0.0141852 0.0107849 -2.63987e-17
0.0137879 0.0110662 -1.63287e-17
0.0133333 0.0114081 -2.66311e-17
0.0128565 0.0117931 -2.57742e-17
0.0123899 0.0121906 -2.86328e-17
0.0119341 0.0126004 -2.88949e-17
0.0114899 0.0130227 -2.44038e-17
0.0111812 0.0133333 -2.35985e-17
0.0109449 0.0135807 -2.40136e-17
0.0107141 0.013833 -1.68495e-17
0.0104886 0.0140902 -2.45333e-17
0.0102685 0.014352 -2.58125e-17
0.01 0.0146847 -2.70338e-17
0.00969594 0.0150811 -1.99353e-17
0.0094011 0.0154844 -2.1814e-17
0.00911545 0.0158943 -2.14253e-17
0.00883851 0.0163101 -2.1658e-17
0.00860921 0.0166667 -2.22045e-17
0.0082207 0.0172889 -1.47663e-17
0.00785981 0.0179275 -1.9945e-17
0.0075253 0.0185803 -2.47099e-17
0.00720929 0.0192423 -2.27093e-17
0.00687204 0.02 -1.33648e-17
0.00683097 0.0200988 -1.34674e-17
0.00679051 0.0201978 -1.20199e-17
0.00675056 0.0202971 -7.45124e-18
0.00671102 0.0203965 -1.19036e-17
0.00666667 0.0205093 -1.12177e-17
0.00644759 0.0210741 -6.3374e-18
0.00624009 0.0216433 -9.07897e-18
0.00604355 0.0222163 -9.36436e-18
0.00585729 0.0227928 -9.06045e-18
0.00568867 0.0233333 -1.38778e-17
0.00547932 0.024 -9.4369e-18
0.00529244 0.0246733 -5.35401e-18
0.00512693 0.0253522 -6.28292e-18
0.0049693 0.0260329 -6.6576e-18
0.0048187 0.0266667 -1.13816e-17
0.00465669 0.0273333 -1.16129e-17
0.00451567 0.0280048 -1.06694e-17
0.00439128 0.0286795 -4.73974e-18
0.00427108 0.0293549 -9.92096e-18
0.00415536 0.03 -1.03895e-17
0.00403061 0.0306667 -6.71231e-18
0.00392504 0.0313366 -7.78e-18
0.0038238 0.0320073 -6.46529e-18
0.00372619 0.0326785 -3.76664e-18
0.00363443 0.0333333 3.66191e-18
0.00357421 0.0337553 -9.12699e-19
0.00351896 0.034178 -9.84169e-19
0.00346506 0.0346008 -8.84118e-19
0.00341247 0.0350238 -1.30501e-17
0.00333333 0.0356765 -5.55112e-18
0.00331023 0.0358745 -1.39163e-17
0.00328739 0.0360726 -1.53421e-17
0.00326481 0.0362707 -1.67675e-17
0.00324248 0.0364688 -1.95802e-17
0.00322044 0.0366667 -1.249e-17
0.00314558 0.0373333 -1.77636e-17
0.00307489 0.0380005 -1.15887e-17
[...]
POINT_DATA 41160
 FIELD attributes 1
U 3 41160 float
-6.44333e-19 	-1.69604e-21 	0
-0.0152163 	2.55174e-05 	0 -0.0152163 	2.55174e-05 	0 -0.0152163 	2.55174e-05 	0 -0.0152163 	2.55174e-05 	0 -0.0152163 	2.55174e-05 	0 -0.0152163 	2.55174e-05 	0 -0.0155497 	5.05978e-05 	0 -0.015787 	8.87913e-05 	-3.96098e-25 -0.0157472 	0.000163468 	-1.89469e-24 -0.0154939 	0.000220411 	-3.40031e-24 -0.0151699 	0.000270873 	-4.91185e-24 -0.0154945 	0.000264039 	1.92393e-22 -0.015677 	0.000281733 	3.24294e-22 -0.0155767 	0.000350562 	3.20404e-22 -0.015343 	0.000425312 	1.91586e-22 -0.0150478 	0.000503745 	-6.12302e-24 -0.0153497 	0.000468923 	3.64289e-23 -0.0154408 	0.000477885 	5.81809e-23 -0.0152911 	0.000541107 	5.44266e-23 -0.0150868 	0.000624124 	3.04116e-23 -0.0148315 	0.000728006 	-1.46736e-23 -0.0150999 	0.000670072 	-1.0766e-23 -0.01507 	0.000685798 	-2.76466e-23 -0.0148848 	0.000744562 	-5.64662e-23 -0.014701 	0.000821078 	-8.64278e-23 -0.0144935 	0.000947206 	-1.19477e-22 -0.0147207 	0.000871664 	-9.02117e-23 -0.0145503 	0.000911753 	-8.56107e-23 -0.0143444 	0.000967935 	-8.43539e-23 -0.0141549 	0.00102589 	-8.33756e-23 -0.0140005 	0.00116436 	-1.09525e-22 -0.0140987 	0.00110691 	-1.92371e-22 -0.0138706 	0.00116069 	-1.54531e-22 -0.0136582 	0.00121659 	-1.16112e-22 -0.0134622 	0.00127468 	-7.70909e-23 -0.0133259 	0.0013825 	1.08017e-23 -0.0132791 	0.00137054 	-4.67109e-23 -0.013094 	0.00141582 	-3.32644e-23 -0.0129195 	0.00146284 	-1.91423e-23 -0.012756 	0.00151167 	-4.32056e-24 -0.0126396 	0.00155048 	7.58001e-24 -0.0126028 	0.00156434 	1.18466e-23 -0.0125669 	0.00157835 	1.61659e-23 -0.0125319 	0.00159249 	2.05383e-23 -0.0124976 	0.00160677 	2.49641e-23 -0.012427 	0.00165232 	9.19405e-24 -0.0121884 	0.0016804 	6.82237e-24 -0.011985 	0.00174082 	7.74087e-24 -0.0117976 	0.00180453 	8.62859e-24 -0.011627 	0.00187167 	9.48421e-24 -0.0112695 	0.00213615 	5.14066e-23 -0.010919 	0.00201495 	3.80629e-22 -0.0107304 	0.00206855 	4.67226e-22 -0.0105682 	0.00213837 	5.39493e-22 -0.0103047 	0.00234136 	4.39106e-22 -0.00997106 	0.00267817 	1.8117e-22 -0.00966384 	0.00258583 	4.47072e-22 -0.009355 	0.0024928 	7.12956e-22 -0.00904212 	0.00259416 	7.27096e-22 -0.00877488 	0.00290431 	4.93393e-22 -0.00855472 	0.00324321 	2.60867e-22 -0.00833106 	0.00319352 	4.64726e-22 -0.00804914 	0.00325175 	5.00397e-22 -0.00775118 	0.00338562 	4.33463e-22 -0.00748687 	0.00353902 	3.63169e-22 -0.0073346 	0.00365521 	3.13903e-22 -0.00728693 	0.00369492 	2.99974e-22 -0.00724073 	0.00373559 	2.85899e-22 -0.00719601 	0.00377723 	2.71678e-22 -0.00713782 	0.00383079 	2.7006e-22 -0.00707182 	0.00389325 	2.74693e-22 -0.00666769 	0.00395966 	1.82366e-22 -0.00640079 	0.00413847 	9.85155e-23 -0.00616363 	0.00434848 	1.92134e-23 -0.00589422 	0.00463171 	2.61092e-23 -0.00561628 	0.00503389 	3.217e-23 -0.00555459 	0.00507534 	1.85576e-23 -0.00549603 	0.00511969 	4.93877e-24 -0.00543968 	0.00516802 	3.03015e-23 -0.00538602 	0.00521993 	7.78477e-23 -0.00534078 	0.00526924 	1.20545e-22 -0.00503378 	0.00546016 	1.21395e-22 -0.00475974 	0.0056906 	1.16276e-22 -0.00452568 	0.00592899 	1.05141e-22 -0.00432992 	0.00616951 	8.84757e-23 -0.00406265 	0.0066071 	5.37507e-23 -0.00404586 	0.00663524 	8.90513e-23 -0.00402946 	0.0066639 	1.24048e-22 -0.00401345 	0.00669306 	1.58741e-22 -0.00401372 	0.00671458 	8.46684e-23 -0.00401584 	0.00673495 	4.01084e-25 -0.00362961 	0.00690489 	-6.80218e-22 -0.00341739 	0.00726268 	-1.12464e-21 -0.00326501 	0.00767836 	-1.50541e-21 -0.00335538 	0.00797441 	-1.19309e-21 -0.00342948 	0.00821215 	-9.46542e-22 -0.00300347 	0.00857179 	-6.22172e-22 -0.0027386 	0.00888309 	-3.65089e-22 -0.00264565 	0.00908512 	-1.982e-22 -0.00256238 	0.00931283 	-2.63823e-23 -0.00269216 	0.00967256 	1.79098e-23 -0.00252663 	0.00991582 	1.45835e-24 -0.00247828 	0.0100231 	0 -0.0024427 	0.0101213 	0 -0.00240865 	0.0102244 	0 -0.00235881 	0.0103892 	0 -0.00231606 	0.0105399 	0 -0.00227604 	0.0106997 	0 -0.00223866 	0.0108681 	0 -0.00220381 	0.0110449 	0 -0.00226694 	0.0109924 	0 -0.00202007 	0.0110881 	0 -0.00194724 	0.0114337 	0 -0.00188349 	0.0118136 	0 -0.00189349 	0.012033 	0 -0.00205592 	0.0118089 	0 -0.0017359 	0.0119594 	0 -0.00148781 	0.0122519 	0 -0.00144094 	0.0127717 	0 -0.00163235 	0.0125463 	0 -0.0018211 	0.0122082 	0 -0.00148108 	0.012489 	0 -0.0011594 	0.0129031 	0 -0.0011275 	0.0130018 	0 -0.00135986 	0.0126422 	0 -0.00157223 	0.0121825 	0 -0.00121694 	0.0126094 	0 -0.000882849 	0.0132121 	0 -0.000840156 	0.0128397 	0 -0.00109385 	0.0123906 	0 -0.00132579 	0.011807 	0 -0.000960308 	0.0123919 	0 -0.000719752 	0.0127395 	0 -0.000694969 	0.0123008 	0 -0.000836122 	0.0117656 	0 -0.00108343 	0.0110616 	0 -0.00071312 	0.0118119 	0 -0.000577105 	0.0118109 	0 -0.000555441 	0.0113676 	0 -0.00059965 	0.0108497 	0 -0.000857633 	0.0100362 	0 -0.000487963 	0.0109545 	0 -0.000447602 	0.0106047 	0 -0.00042909 	0.0101661 	0 -0.000410578 	0.00972756 	0 -0.000657783 	0.00883216 	0 -0.000348987 	0.00959311 	0 -0.000333516 	0.00916786 	0 -0.000318046 	0.0087426 	0 -0.000302576 	0.00831735 	0 -0.00048174 	0.00742772 	0 -0.000247857 	0.00791167 	0 -0.000235149 	0.00750602 	0 -0.000222441 	0.00710038 	0 -0.000209733 	0.00669474 	0 -0.000332301 	0.005871 	2.90151e-37 -0.000164815 	0.00607944 	0 -0.000154414 	0.00569576 	0 -0.000144012 	0.00531208 	0 -0.00013361 	0.0049284 	0 -0.000210272 	0.00421614 	2.9273e-40 -9.92803e-05 	0.00415436 	0 -9.05422e-05 	0.00378871 	0 -8.18041e-05 	0.00342307 	0 -7.3066e-05 	0.00305742 	0 -0.000111974 	0.00248625 	-1.04878e-37 -5.08927e-05 	0.00231092 	0 -4.46664e-05 	0.0020282 	0 -3.84402e-05 	0.00174548 	0 -3.22139e-05 	0.00146276 	0 -3.09925e-05 	0.000725537 	0 -1.48496e-05 	0.000673262 	0 -1.29315e-05 	0.000586296 	0 -1.10133e-05 	0.00049933 	0 -9.09521e-06 	0.000412365 	0 0 	0 	0
-0.0295938 	4.06629e-05 	0 -0.029815 	0.000178175 	0 -0.0299236 	0.000285951 	-7.0174e-25 -0.0299017 	0.000360917 	-2.17766e-24 -0.0297147 	0.000488224 	-1.79486e-23 -0.0293976 	0.000659991 	-4.58152e-23 -0.0295293 	0.000736764 	-2.26668e-22 -0.0295881 	0.00081116 	-3.38203e-22 -0.0295302 	0.000881722 	-3.44119e-22 -0.0292507 	0.0010439 	-2.33106e-22 -0.0288701 	0.00125662 	-5.95176e-23 -0.0289138 	0.00127817 	-7.09207e-23 -0.0289304 	0.00130961 	-8.07452e-23 -0.0288421 	0.00137681 	-8.47453e-23 -0.0284478 	0.0015961 	-5.68102e-23 -0.0280278 	0.00184629 	-2.3113e-23 -0.0279914 	0.00182112 	-4.40464e-23 -0.0279519 	0.00179562 	-6.49799e-23 -0.0277976 	0.00188139 	-8.77318e-23 -0.027324 	0.00215949 	-8.66832e-23 -0.0268896 	0.00244358 	-8.52805e-23 -0.0267855 	0.00238262 	-2.71113e-22 -0.0266747 	0.00232064 	-4.57036e-22 -0.0263702 	0.00244163 	-4.41784e-22 -0.0259032 	0.00274813 	-2.25656e-22 -0.0254783 	0.0030627 	-8.96779e-24 -0.0253217 	0.00297857 	1.52177e-22 -0.025157 	0.00289286 	3.13255e-22 -0.02464 	0.00305906 	3.26364e-22 -0.0241977 	0.00337225 	2.39324e-22 -0.023804 	0.00371386 	1.39683e-22 -0.0236112 	0.0036201 	2.77873e-22 -0.0232234 	0.00368141 	3.13843e-22 -0.0227172 	0.00385732 	2.77524e-22 -0.0222396 	0.00404288 	2.40002e-22 -0.0218938 	0.0044069 	9.26244e-23 -0.0216856 	0.00436955 	8.4754e-23 -0.0212871 	0.00451387 	1.15514e-22 -0.0209073 	0.00466556 	1.46788e-22 -0.0205471 	0.00482496 	1.78599e-22 -0.0202996 	0.00494696 	2.0218e-22 -0.0202032 	0.005001 	2.04035e-22 -0.0201088 	0.00505586 	2.05825e-22 -0.0200164 	0.00511154 	2.07552e-22 -0.0199261 	0.00516805 	2.09212e-22 -0.0197712 	0.00527306 	2.17378e-22 -0.0192674 	0.00542327 	1.97119e-22 -0.018846 	0.00563816 	2.01361e-22 -0.0184565 	0.00586831 	2.03221e-22 -0.0180231 	0.00617211 	2.2252e-22 -0.0174486 	0.00663563 	2.82161e-22 -0.0169597 	0.00675878 	1.60129e-22 -0.0165013 	0.0069004 	3.72445e-23 -0.0159431 	0.00716199 	0 -0.0154914 	0.0075966 	4.01291e-23 -0.0150625 	0.00810641 	8.10935e-23 -0.0149184 	0.00817756 	3.47389e-23 -0.0147657 	0.00826227 	0 -0.0145779 	0.00838087 	0 -0.0143976 	0.00850484 	0 -0.0142524 	0.00861382 	0 -0.0139251 	0.00887231 	0 -0.0136214 	0.0091501 	0 -0.0133419 	0.00944749 	0 -0.0130014 	0.009779 	0 -0.0126261 	0.0101949 	0 -0.0122751 	0.0104574 	0 -0.0119577 	0.0107504 	0 -0.0116259 	0.0110541 	0 -0.0113155 	0.0113835 	0 -0.0111199 	0.0116417 	0 -0.0108983 	0.0119115 	0 -0.0106907 	0.0121957 	0 -0.0104802 	0.0124654 	-1.8433e-23 -0.0102701 	0.0127258 	-5.15491e-23 -0.0100241 	0.0130679 	-9.2869e-23 -0.0097724 	0.0133676 	-9.9214e-23 -0.00954308 	0.0136927 	-1.06668e-22 -0.00934096 	0.0140246 	-1.37594e-22 -0.00918611 	0.014286 	-2.85442e-22 -0.00906807 	0.0145229 	-4.11169e-22 -0.00854922 	0.0151284 	-6.35493e-22 -0.00809069 	0.01579 	-8.25019e-22 -0.00776397 	0.0162642 	-5.29319e-22 -0.00747235 	0.0167876 	-2.38685e-22 -0.00727167 	0.0174885 	1.44944e-22 -0.00720397 	0.0176374 	2.42708e-22 -0.00714745 	0.0177572 	2.71941e-22 -0.00710071 	0.0178513 	2.4075e-22 -0.00705485 	0.0179467 	2.09898e-22 -0.00700386 	0.0180563 	1.75315e-22 -0.00676243 	0.0185497 	1.59953e-22 -0.00654553 	0.0190843 	1.46041e-22 -0.00635173 	0.0196574 	1.33494e-22 -0.00627871 	0.0201281 	1.35599e-22 -0.00639089 	0.0203517 	1.61027e-22 -0.0058245 	0.0209855 	1.01137e-22 -0.00529222 	0.0217073 	4.23281e-23 -0.00520211 	0.022466 	1.70148e-22 -0.0054247 	0.0228268 	3.5592e-22 -0.00562489 	0.023146 	5.27488e-22 -0.00504581 	0.0240244 	2.33205e-22 -0.00458285 	0.0248583 	0 -0.00447891 	0.0251693 	0 -0.00458125 	0.0255374 	2.90728e-25 -0.00484914 	0.0259132 	8.1659e-25 -0.00426289 	0.0270549 	3.04028e-26 -0.00414198 	0.027437 	0 -0.00404485 	0.0278124 	0 -0.00395292 	0.0282123 	0 -0.00408335 	0.028614 	-1.21615e-22 -0.00382397 	0.0292536 	0 -0.0037618 	0.0295085 	0 -0.00370167 	0.0297742 	0 -0.00364352 	0.0300507 	0 -0.00355682 	0.030493 	0 -0.00353236 	0.0306326 	0 -0.00350829 	0.0307744 	0 -0.0034846 	0.0309182 	0 -0.00346129 	0.0310641 	0 -0.00348351 	0.031023 	0 -0.00333573 	0.0314812 	0 -0.00324569 	0.0319494 	0 -0.00316008 	0.0324451 	0 -0.00307874 	0.0329673 	0 -0.00319536 	0.0326238 	0 -0.00289204 	0.0332984 	0 -0.00280536 	0.0338216 	0 -0.00272272 	0.0343733 	0 -0.00265327 	0.0349055 	0 -0.00289749 	0.0339071 	0 -0.00252782 	0.0348254 	0 -0.00238641 	0.0354759 	0 -0.00230628 	0.0360731 	0 -0.00235099 	0.036039 	0 -0.00259821 	0.0348865 	0 -0.00223451 	0.0359702 	0 -0.00199646 	0.0368954 	0 -0.00191941 	0.0375266 	0 -0.0020627 	0.0369073 	0 -0.00230939 	0.0356074 	0 -0.0019565 	0.0368494 	0 -0.00164715 	0.0381111 	7.60086e-38 -0.00157535 	0.0387642 	6.47071e-37 -0.00180065 	0.0375674 	1.21974e-36 -0.00204494 	0.0361293 	1.78555e-36 -0.00170673 	0.0375186 	1.15564e-36 -0.00137592 	0.0390429 	5.32005e-37 -0.00132751 	0.0395106 	7.81949e-40 -0.00157631 	0.0380413 	1.66236e-39 -0.00181911 	0.0364748 	2.53247e-39 -0.00149808 	0.0379991 	1.57701e-39 -0.00118374 	0.039661 	6.30613e-40 -0.00115262 	0.0399329 	-3.95715e-37 -0.00140472 	0.0383498 	-9.74265e-37 -0.00165116 	0.036662 	-1.54652e-36 -0.00134807 	0.0383104 	-9.24454e-37 -0.00105112 	0.0400985 	-3.08012e-37 -0.00103939 	0.0402089 	0 -0.00130658 	0.038516 	0 -0.00156793 	0.0367054 	0 -0.0012818 	0.0384747 	0 -0.00100163 	0.0403865 	0 -0.00100652 	0.0403425 	0 -0.00130956 	0.0385309 	0 -0.00160558 	0.036578 	0 -0.00133448 	0.0384824 	0 -0.00106979 	0.040536 	0 -0.00107737 	0.0402935 	0 -0.00144884 	0.0383283 	0 -0.00180999 	0.0361773 	0 -0.00155365 	0.0382686 	0 -0.00130532 	0.0405231 	0 -0.00128198 	0.0399074 	0 -0.00175769 	0.0377275 	0 -0.0022252 	0.0352549 	0 -0.00199107 	0.0376615 	0 -0.00180334 	0.0394889 	0 -0.00175717 	0.0384777 	0 -0.0022166 	0.0362101 	0 -0.00283506 	0.0331691 	0 -0.00265099 	0.0361793 	0 -0.00250674 	0.0369381 	0 -0.00239116 	0.0352349 	0 -0.00262129 	0.0327656 	0 -0.00341362 	0.0287117 	0 -0.00335141 	0.0329419 	0 -0.00308458 	0.0308752 	0 -0.0027869 	0.0278955 	0 -0.00248922 	0.0249159 	0 -0.00317214 	0.0195212 	0 -0.00307363 	0.0221406 	0 -0.00241488 	0.0173953 	0 -0.00175612 	0.01265 	0 -0.00109737 	0.00790476 	0 -0.000146421 	0.000703452 	0 -0.000154365 	0.00089587 	0 -0.000122207 	0.000709242 	0 -9.00501e-05 	0.000522614 	0 -5.78928e-05 	0.000335986 	0 0 	0 	0
-0.0430128 	4.39548e-05 	0 -0.0429817 	0.000255737 	-2.03512e-23 -0.0428997 	0.00048859 	-4.64757e-23 -0.0428383 	0.000721954 	-7.27403e-23 -0.0427977 	0.000955822 	-9.91446e-23 -0.0427332 	0.00118021 	-1.25939e-22 -0.042586 	0.00137569 	-1.55153e-22 -0.042401 	0.00159423 	-1.55706e-22 -0.0422359 	0.00181429 	-1.55463e-22 -0.0420907 	0.00203589 	-1.54415e-22 -0.0420405 	0.00212548 	-1.53668e-22 -0.0420276 	0.00215251 	-1.5397e-22 -0.0420151 	0.00217957 	-1.54266e-22 -0.0420028 	0.00220665 	-1.54559e-22 -0.0419909 	0.00223376 	-1.54847e-22 -0.0419697 	0.00226551 	-1.55938e-22 -0.0416929 	0.00247285 	-1.27828e-22 -0.0414317 	0.00268174 	-9.96999e-23 -0.041191 	0.0028933 	-7.13816e-23 -0.040971 	0.00310756 	-4.2871e-23 -0.0406586 	0.00338353 	-1.96748e-23 -0.0403454 	0.00357966 	-6.14876e-24 -0.0400229 	0.00378301 	2.31986e-24 -0.0397209 	0.00399006 	1.09914e-23 -0.0394399 	0.0042009 	1.987e-23 -0.0389169 	0.00456145 	1.77592e-23 -0.0385565 	0.00471796 	2.07899e-22 -0.038196 	0.00492251 	2.50939e-22 -0.0378568 	0.00513197 	2.95251e-22 -0.0374396 	0.00540551 	2.71098e-22 -0.0367987 	0.00583533 	7.42169e-23 -0.03638 	0.00596839 	4.74964e-23 -0.0359854 	0.00612495 	3.00768e-23 -0.0356334 	0.0063451 	4.20558e-23 -0.0349811 	0.00677676 	7.44883e-23 -0.0343541 	0.00723488 	1.07196e-22 -0.0339099 	0.00736611 	5.83748e-23 -0.0334835 	0.00750409 	9.35321e-24 -0.032824 	0.00781981 	6.41264e-26 -0.0322113 	0.00828591 	1.66256e-23 -0.0316319 	0.0087805 	3.30327e-23 -0.0311952 	0.00892931 	5.09241e-24 -0.0305483 	0.00925236 	0 -0.029887 	0.00963108 	0 -0.0292682 	0.0100317 	0 -0.0287082 	0.0104445 	0 -0.0287013 	0.0104507 	0 -0.0286944 	0.010457 	0 -0.0286876 	0.0104632 	0 -0.0286795 	0.0104701 	0 -0.0286689 	0.0104784 	0 -0.0280081 	0.010875 	0 -0.0273936 	0.0113014 	0 -0.0268241 	0.0117559 	0 -0.0262021 	0.0122874 	0 -0.0254202 	0.0129819 	0 -0.0247828 	0.0133754 	0 -0.0241777 	0.0138116 	0 -0.0234342 	0.0143589 	0 -0.0227578 	0.0149544 	0 -0.0220607 	0.0156965 	0 -0.0220602 	0.015697 	0 -0.0220596 	0.0156976 	0 -0.0220589 	0.0156981 	0 -0.0220582 	0.0156987 	0 -0.0220575 	0.0156993 	0 -0.0212942 	0.016327 	0 -0.020599 	0.0170182 	0 -0.0199594 	0.0177687 	-3.51467e-26 -0.0192467 	0.0185364 	-4.14177e-25 -0.0184111 	0.0196339 	-9.13493e-25 -0.0183182 	0.0197579 	-9.15752e-25 -0.0182274 	0.0198838 	-9.18409e-25 -0.0181331 	0.0200021 	-7.083e-24 -0.0180331 	0.0201091 	-2.1781e-23 -0.0179401 	0.0202124 	-3.57253e-23 -0.0171613 	0.0210515 	-3.20827e-23 -0.016462 	0.0219807 	-2.50399e-23 -0.0158078 	0.0228422 	-5.2724e-23 -0.0152352 	0.0237116 	-1.10647e-22 -0.0148352 	0.0246036 	-1.88531e-22 -0.0147419 	0.0247988 	-2.52612e-22 -0.0146502 	0.0249901 	-3.01996e-22 -0.0145575 	0.0251384 	-2.39696e-22 -0.0144664 	0.0252886 	-1.77813e-22 -0.0143679 	0.0254563 	-1.10025e-22 -0.0139159 	0.0261772 	2.52004e-22 -0.0135065 	0.0269515 	6.0172e-22 -0.013138 	0.0277762 	9.39493e-22 -0.0128967 	0.0283689 	6.4637e-22 -0.0127287 	0.0288499 	2.27972e-22 -0.0120817 	0.0299222 	-1.28699e-22 -0.0114888 	0.0310782 	-4.90188e-22 -0.0111136 	0.0317723 	-9.00735e-23 -0.0108788 	0.0325403 	6.57449e-22 -0.0107849 	0.0332869 	1.62807e-21 -0.0104397 	0.0341323 	2.27362e-21 -0.0102041 	0.0347009 	2.03728e-21 -0.0100064 	0.0352019 	1.55382e-21 -0.00981824 	0.0357207 	1.08049e-21 -0.00955848 	0.036499 	4.07347e-22 -0.00946796 	0.0368008 	3.05259e-22 -0.00937997 	0.0371076 	2.03431e-22 -0.00929447 	0.0374192 	1.01861e-22 -0.00921474 	0.0377295 	2.85445e-24 -0.00927958 	0.0377831 	3.02464e-24 -0.00876884 	0.0387087 	-8.43854e-23 -0.00849761 	0.0396952 	-2.94363e-22 -0.00824833 	0.0407287 	-5.08262e-22 -0.00815239 	0.0415358 	-7.25557e-22 -0.00839101 	0.0416893 	-9.3756e-22 -0.00771768 	0.0428508 	-6.14092e-22 -0.00712251 	0.0440936 	-1.58929e-22 -0.00694426 	0.0452449 	1.24512e-21 -0.00723877 	0.0454068 	2.36612e-21 -0.00751661 	0.0455345 	3.44901e-21 -0.00683886 	0.046924 	1.91878e-21 -0.00618799 	0.0484167 	4.09523e-22 -0.00602826 	0.049044 	6.56618e-25 -0.00635188 	0.0491673 	3.63465e-24 -0.00665954 	0.0492515 	6.53194e-24 -0.00598237 	0.0508613 	2.70032e-24 -0.00548242 	0.0521749 	0 -0.00537493 	0.0525685 	0 -0.00550607 	0.052779 	-2.9994e-21 -0.00583298 	0.0527993 	-8.50002e-21 -0.00516195 	0.0546145 	-1.61393e-21 -0.00492453 	0.0553561 	0 -0.00482057 	0.0557748 	0 -0.00471925 	0.0562144 	0 -0.00505367 	0.0561518 	-1.07815e-23 -0.00448699 	0.0578653 	0 -0.00438524 	0.0582792 	0 -0.00428584 	0.0587142 	0 -0.00418876 	0.05917 	0 -0.00433476 	0.0592661 	2.5361e-21 -0.00397361 	0.0604922 	3.29888e-37 -0.00387932 	0.0609148 	9.6554e-37 -0.003787 	0.0613578 	1.60008e-36 -0.00369663 	0.0618208 	2.23352e-36 -0.00369586 	0.0621296 	2.98082e-36 -0.00354335 	0.0627378 	3.24244e-36 -0.00348894 	0.0630135 	2.69549e-36 -0.00343523 	0.0632973 	2.15156e-36 -0.0033822 	0.0635891 	1.61062e-36 -0.00331156 	0.0639936 	8.84732e-37 -0.00328838 	0.0641336 	6.99558e-37 -0.00326533 	0.0642753 	5.14464e-37 -0.00324242 	0.0644184 	3.29448e-37 -0.00321963 	0.0645631 	1.44511e-37 -0.00321949 	0.0645537 	4.482e-39 -0.00313492 	0.0650502 	-5.17322e-37 -0.0030722 	0.0654787 	-1.08489e-36 -0.00301065 	0.0659224 	-1.65325e-36 -0.00295025 	0.066381 	-2.22238e-36 -0.0029805 	0.0661783 	-2.79161e-36 -0.0028603 	0.0669874 	-2.16954e-36 -0.00283026 	0.0674228 	-1.54881e-36 -0.00280089 	0.0678674 	-9.28487e-37 -0.00277216 	0.0683211 	-3.08567e-37 -0.00288729 	0.0675917 	0 -0.00274074 	0.0687475 	0 -0.00276416 	0.0692071 	0 -0.00278751 	0.0696658 	0 -0.00281079 	0.0701234 	0 -0.00302132 	0.0688312 	0 -0.00284157 	0.0703872 	0 -0.00295133 	0.0709052 	0 -0.00305969 	0.0714048 	0 -0.0031667 	0.0718866 	0 -0.00349736 	0.0699035 	0 -0.0032477 	0.0719742 	0 -0.00349497 	0.0726095 	0 -0.00373805 	0.0731978 	0 -0.00400515 	0.073351 	0 -0.00446404 	0.0707258 	0 -0.00422991 	0.0731324 	0 -0.00450536 	0.0743866 	0 -0.00495659 	0.0751452 	0 -0.00546699 	0.0742609 	0 -0.00606528 	0.0709613 	0 -0.00588121 	0.0739715 	0 -0.00603967 	0.0763681 	0 -0.00679932 	0.0774429 	0 -0.00756441 	0.0743723 	0 -0.00830014 	0.0698118 	0 -0.00823793 	0.074042 	0 -0.00819639 	0.0784502 	0 -0.00906439 	0.0786829 	0 -0.00989528 	0.0723266 	0 -0.0106308 	0.0654212 	0 -0.0108401 	0.072174 	0 -0.0111028 	0.0792656 	0 -0.010548 	0.0755962 	0 -0.0110174 	0.0653163 	0 -0.0112906 	0.0542435 	0 -0.0120139 	0.0664038 	0 -0.0114893 	0.0666793 	0 -0.00998182 	0.0579304 	0 -0.00847433 	0.0491815 	0 -0.00717767 	0.0311515 	0 -0.00788106 	0.0460838 	0 -0.00640185 	0.0374343 	0 -0.00492264 	0.0287847 	0 -0.00344344 	0.0201352 	0 0 	0 	0