# vtk DataFile Version 2.0
track0
ASCII
DATASET POLYDATA
POINTS 20093 float
0.05 8.57988e-20 2.57396e-18
0.05 0.00217391 -1.05592e-17
0.05 0.00217391 -1.05592e-17
0.05 0.00217391 -1.05592e-17
0.05 0.00217391 -1.05592e-17
0.05 0.00217391 -1.05592e-17
0.05 0.00217391 -1.38778e-17
0.0493333 0.00217887 -5.27356e-18
0.0486667 0.00218393 -1.94289e-18
0.048 0.00218969 -5.40868e-18
0.0473334 0.00219771 -5.7416e-18
0.0466667 0.00220808 -1.249e-17
0.046 0.00222093 -8.74301e-18
0.0453333 0.00223271 -9.57564e-18
0.0446666 0.00224459 -5.31733e-18
0.044 0.00225872 -9.24002e-18
0.0433333 0.00227587 -1.249e-17
0.0426667 0.00229665 -1.22125e-17
0.0419999 0.0023153 -9.5761e-18
0.0413332 0.00233389 -7.42748e-18
0.0406665 0.0023548 -9.47265e-18
0.04 0.00237913 -1.249e-17
0.0393333 0.00240821 -1.08247e-17
0.0386665 0.00243421 -1.37388e-17
0.0379998 0.00246063 -1.31111e-17
0.0373331 0.00248953 -9.60987e-18
0.0366667 0.00252184 -6.93889e-18
0.036 0.00256 -1.08247e-17
0.0353331 0.00259425 -6.798e-18
0.0346663 0.00263021 -6.89017e-18
0.0339997 0.00266895 -1.14972e-17
0.0333333 0.00271055 -1.38778e-17
0.0326667 0.00275909 -1.83187e-17
0.0319997 0.00280401 -1.89428e-17
0.031333 0.00285204 -1.73166e-17
0.0306666 0.00290329 -1.01879e-17
0.03 0.00295792 -1.38778e-17
0.0293333 0.00301886 -2.04003e-17
0.0286666 0.00307888 -2.58819e-17
0.0280002 0.00314261 -2.44647e-17
0.0273342 0.00321021 -3.37879e-17
0.0266667 0.00328202 -3.60822e-17
0.0265771 0.00329228 -3.21427e-17
0.0264875 0.00330253 -3.65297e-17
0.026398 0.00331286 -3.81413e-17
0.0263084 0.00332326 -3.55894e-17
0.0262224 0.00333333 -3.747e-17
0.0256446 0.00340148 -2.89731e-17
0.0250672 0.00347302 -3.57333e-17
0.0244902 0.00354808 -3.52333e-17
0.0239138 0.00362679 -4.12122e-17
0.0233333 0.0037099 -3.67094e-17
0.0226667 0.00381834 -3.55022e-17
0.0219999 0.00392647 -3.84578e-17
0.0213342 0.00404036 -4.21277e-17
0.0206695 0.00416024 -4.56695e-17
0.02 0.00429112 -4.07952e-17
0.0193333 0.00444803 -4.16692e-17
0.0186664 0.00460388 -4.35734e-17
0.0179995 0.00475966 -4.19537e-17
0.0173349 0.00492508 -3.90831e-17
0.0166667 0.00512062 -4.30211e-17
0.016 0.00534849 -3.9968e-17
0.0153341 0.00557872 -3.59414e-17
0.0146709 0.00581647 -3.97284e-17
0.0140161 0.00607623 -4.48997e-17
0.0133333 0.0063766 -4.30211e-17
0.013217 0.00643462 -4.8766e-17
0.0131008 0.00649282 -4.67972e-17
0.0129847 0.00655138 -4.10528e-17
0.012869 0.0066106 -4.50234e-17
0.012761 0.00666667 -4.30211e-17
0.0122088 0.0069572 -4.90561e-17
0.0116673 0.00726717 -4.81845e-17
0.0111379 0.00759742 -4.69977e-17
0.010622 0.0079484 -4.95264e-17
0.01 0.00841757 -4.85723e-17
0.00963334 0.00873405 -5.32075e-17
0.00927473 0.00905964 -5.43933e-17
0.0089245 0.00939422 -5.81977e-17
0.00858296 0.00973766 -6.25204e-17
0.00833513 0.01 -6.10623e-17
0.00800144 0.0103669 -6.67486e-17
0.00768389 0.0107479 -6.82357e-17
0.00738297 0.0111421 -6.69451e-17
0.007097 0.0115473 -7.30799e-17
0.00666667 0.0122029 -8.04912e-17
0.00653418 0.012429 -8.20996e-17
0.00640464 0.0126568 -7.95398e-17
0.00627801 0.0128862 -7.83629e-17
0.00615423 0.0131172 -7.825e-17
0.00603969 0.0133333 -7.49401e-17
0.00568902 0.014 -7.18869e-17
0.00537676 0.0146855 -6.78243e-17
0.00510128 0.0153866 -6.81818e-17
0.00484523 0.016095 -7.38193e-17
0.00463961 0.0166667 -7.68811e-17
0.00440071 0.0173333 -7.85187e-17
0.00419836 0.018012 -8.02023e-17
0.00401688 0.0186965 -8.68957e-17
0.00384465 0.0193834 -8.12694e-17
0.00369844 0.02 -7.85882e-17
0.00362542 0.0203041 -7.91918e-17
0.00355905 0.0206097 -8.50559e-17
0.00349432 0.0209157 -8.27038e-17
0.00343119 0.021222 -8.41703e-17
0.00333333 0.0217093 -8.88178e-17
0.00327076 0.0220341 -8.75343e-17
0.00320977 0.0223592 -8.48603e-17
0.00315031 0.0226846 -8.77349e-17
0.00309235 0.0230103 -8.50558e-17
0.00303632 0.0233333 -8.74301e-17
0.00291786 0.024 -9.20097e-17
0.00281059 0.0246686 -8.61842e-17
0.00270924 0.025338 -8.17078e-17
0.00261343 0.0260083 -8.36773e-17
0.00252325 0.0266667 -7.49401e-17
0.00242181 0.0273333 -7.11931e-17
0.00233602 0.0280022 -6.53589e-17
0.00225937 0.0286722 -6.63202e-17
0.00218695 0.0293426 -6.50512e-17
0.00211013 0.03 -6.80012e-17
0.00202097 0.0306667 -7.04992e-17
0.0019481 0.0313353 -7.23066e-17
0.00189068 0.0320055 -7.58335e-17
0.00183489 0.0326757 -7.27916e-17
0.00176822 0.0333333 -8.18789e-17
0.00168807 0.034 -8.29892e-17
0.00162518 0.0346685 -8.23318e-17
0.00157833 0.0353383 -8.11156e-17
0.00153236 0.0360082 -7.41786e-17
0.00147383 0.0366667 -7.89557e-17
0.00140036 0.0373333 -8.55988e-17
0.0013456 0.0380018 -8.62015e-17
0.00130783 0.0386714 -8.52176e-17
0.0012703 0.0393411 -8.98813e-17
0.00121873 0.04 -9.3623e-17
0.00115024 0.0406667 -9.14273e-17
0.00110251 0.0413351 -9.64102e-17
0.00106737 0.0420044 -9.70131e-17
0.00103224 0.0426736 -9.79119e-17
0.000987173 0.0433333 -9.11557e-17
0.000922408 0.044 -9.24356e-17
0.000881387 0.0446685 -9.22254e-17
0.000848001 0.0453375 -9.21555e-17
0.000814614 0.0460065 -9.02954e-17
0.000776418 0.0466667 -9.28864e-17
0.000714377 0.0473333 -9.3477e-17
0.000680527 0.048002 -8.84212e-17
0.000648368 0.0486708 -8.72982e-17
0.000616209 0.0493396 -8.63302e-17
0.000584452 0.05 -8.424e-17
0.000524319 0.0506667 -8.82338e-17
0.000492942 0.0513353 -9.22723e-17
0.000461564 0.0520039 -9.00734e-17
0.000430187 0.0526726 -9.11869e-17
0.000399179 0.0533333 -8.67071e-17
0.00034023 0.054 -9.45192e-17
0.000309208 0.0546685 -9.33542e-17
0.000278187 0.0553371 -9.04201e-17
0.000247165 0.0560056 -9.53498e-17
0.000216493 0.0566667 -9.05662e-17
0.000173195 0.0571603 -9.45292e-17
0.000150149 0.0576553 -9.57481e-17
0.000127104 0.0581503 -9.90487e-17
0.000104059 0.0586454 -1.08072e-16
4.09932e-05 0.06 -1.05539e-16
3.27945e-05 0.060093 -1.08927e-16
2.83614e-05 0.0601863 -1.06769e-16
2.39283e-05 0.0602796 -1.12678e-16
1.94953e-05 0.0603728 -1.1772e-16
0 0.060783 -1.15963e-16
0.05 0.00434783 5.94331e-18
0.0493333 0.00435394 3.15757e-18
0.0486667 0.00436178 1.06285e-18
0.0480001 0.0043711 -1.87359e-18
0.0473334 0.00438167 7.92125e-18
0.0466667 0.00439472 5.17132e-18
0.046 0.00441134 9.80312e-19
0.0453334 0.0044287 9.51408e-19
0.0446667 0.00444698 2.08581e-19
0.0440001 0.00446651 4.65997e-18
0.0433333 0.00448948 -2.78246e-19
0.0426667 0.00451705 1.29319e-18
0.042 0.00454451 4.59862e-18
0.0413333 0.00457214 2.0817e-19
0.0406667 0.0046011 -2.32109e-18
0.04 0.00463501 -7.02495e-18
0.0393333 0.00467468 -1.3336e-17
0.0386666 0.00471354 -1.7911e-17
0.0379999 0.00475159 -1.79862e-17
0.0373332 0.00479155 -1.11716e-17
0.0366667 0.00483822 -3.58767e-18
0.036 0.00489198 -8.4616e-18
0.0353332 0.00494438 -1.37991e-17
0.0346663 0.00499543 -1.74754e-17
0.0339997 0.00504959 -1.9619e-17
0.0333333 0.00511187 -1.94289e-17
0.0326667 0.00518276 -8.74301e-18
0.0319998 0.00525196 -1.08936e-17
0.0313328 0.00531947 -1.05934e-17
0.0306663 0.00539179 -9.67303e-18
0.03 0.00547389 -1.11022e-17
0.0293333 0.0055664 -1.42941e-17
0.0286664 0.00565716 -1.47794e-17
0.0279998 0.00574973 -1.42256e-17
0.0273341 0.00584914 -1.4598e-17
0.0266667 0.00595744 -1.249e-17
0.026 0.00607812 -1.06859e-17
0.0253332 0.00619828 -7.49385e-18
0.024668 0.00632666 -3.20077e-18
0.0240045 0.00646374 1.47371e-18
0.0233333 0.00661216 1.38778e-18
0.0232874 0.00662306 2.852e-18
0.0232415 0.00663396 5.70399e-18
0.0231956 0.00664491 1.61708e-18
0.0231498 0.0066559 3.05699e-19
0.023105 0.00666667 0
0.022484 0.0068168 -3.02557e-18
0.0218653 0.00697599 -5.15128e-19
0.0212491 0.00714473 -3.81871e-18
0.0206357 0.00732347 -7.02096e-19
0.02 0.00752074 7.45709e-19
0.0193333 0.00775094 -2.8426e-18
0.0186706 0.00799225 -2.58676e-18
0.0180123 0.00824536 -3.94869e-18
0.0173606 0.00851502 -9.84356e-18
0.0166667 0.00883209 -1.11022e-17
0.0162068 0.00906568 -9.0925e-18
0.0157507 0.00930646 -4.02567e-18
0.0152991 0.00955566 -5.00834e-18
0.0148537 0.00981578 -1.44282e-17
0.0145558 0.01 -1.9383e-17
0.0143113 0.0101571 -1.68942e-17
0.0140695 0.0103184 -1.64915e-17
0.0138305 0.0104838 -9.15463e-18
0.0135944 0.0106533 -1.87757e-17
0.0133333 0.0108488 -2.63936e-17
0.0127 0.0113457 -3.03436e-17
0.0120883 0.011869 -3.60739e-17
0.0114998 0.0124182 -3.92718e-17
0.0109362 0.012993 -3.43961e-17
0.0106306 0.0133333 -3.68326e-17
0.0105045 0.0134809 -3.97356e-17
0.0103804 0.0136303 -4.68225e-17
0.0102584 0.0137813 -3.38584e-17
0.0101384 0.0139339 -3.39247e-17
0.01 0.0141143 -3.76409e-17
0.00962013 0.0146248 -3.89251e-17
0.00925797 0.015148 -4.42569e-17
0.00891337 0.0156829 -4.25993e-17
0.00858533 0.0162281 -3.78897e-17
0.00833416 0.0166667 -3.60822e-17
0.00800066 0.0172718 -3.72602e-17
0.00769299 0.0178904 -4.28203e-17
0.00740834 0.0185199 -3.47487e-17
0.00713955 0.0191564 -3.19445e-17
0.00680662 0.02 -3.29571e-17
0.00677863 0.0200769 -3.58026e-17
0.00675098 0.0201539 -2.95479e-17
0.00672359 0.020231 -3.18025e-17
0.00669641 0.0203082 -2.93735e-17
0.00666667 0.0203934 -3.09363e-17
0.00646329 0.0209814 -3.2243e-17
0.00627112 0.0215731 -3.17189e-17
0.00608949 0.0221682 -2.59412e-17
0.00591771 0.0227662 -2.58144e-17
0.00576157 0.0233333 -2.498e-17
0.00557588 0.024 -2.53964e-17
0.00541001 0.0246719 -2.65152e-17
0.00526156 0.0253478 -2.64564e-17
0.005121 0.0260254 -2.35335e-17
0.00498357 0.0266667 -2.36116e-17
0.00483652 0.0273333 -1.46331e-17
0.00470757 0.0280037 -1.6343e-17
0.0045954 0.0286772 -2.00015e-17
0.00448695 0.0293512 -1.92821e-17
0.00437761 0.03 -1.42291e-17
0.00425963 0.0306667 -1.95837e-17
0.00415817 0.031336 -1.78837e-17
0.00406369 0.0320064 -2.51989e-17
0.00397178 0.0326772 -2.73568e-17
0.00388436 0.0333333 -2.45099e-17
0.00378896 0.034 -1.8557e-17
0.00370527 0.0346682 -2.61519e-17
0.0036238 0.0353368 -2.48469e-17
0.00354447 0.0360055 -3.28996e-17
0.00346812 0.0366667 -3.49189e-17
0.00344116 0.0368993 -3.81295e-17
0.00341523 0.0371321 -3.75252e-17
0.00338954 0.0373649 -3.57069e-17
0.00336408 0.0375978 -3.80523e-17
0.00333333 0.0378815 -3.77583e-17
0.00328792 0.0383052 -4.02854e-17
0.00324323 0.038729 -3.62323e-17
0.00319924 0.0391528 -3.49178e-17
0.00315595 0.0395767 -3.36021e-17
0.00311341 0.04 -3.747e-17
0.00304493 0.0406667 -4.41314e-17
0.00298058 0.0413337 -3.83034e-17
0.00291778 0.042001 -3.67743e-17
[...]
POINT_DATA 20093
 FIELD attributes 1
U 3 20093 float
-3.93548e-19 	5.8066e-22 	0
-0.00893328 	6.64515e-05 	0 -0.00893328 	6.64515e-05 	0 -0.00893328 	6.64515e-05 	0 -0.00893328 	6.64515e-05 	0 -0.00893328 	6.64515e-05 	0 -0.00893328 	6.64515e-05 	0 -0.00923553 	7.01316e-05 	0 -0.00944575 	8.15108e-05 	-1.3954e-24 -0.00941331 	0.000113349 	-6.49662e-24 -0.00919081 	0.00014287 	-1.16149e-23 -0.0088975 	0.00017157 	-1.67515e-23 -0.00919241 	0.000162423 	6.28433e-22 -0.00936312 	0.000166797 	1.04703e-21 -0.0093046 	0.000197239 	1.03152e-21 -0.00910524 	0.000234195 	6.18929e-22 -0.00882839 	0.000275237 	-3.04262e-23 -0.00910967 	0.00025474 	4.65645e-22 -0.00921998 	0.000257138 	7.77908e-22 -0.00913923 	0.000286696 	8.7445e-22 -0.0089724 	0.00032747 	7.37318e-22 -0.00871768 	0.000380302 	3.52267e-22 -0.0089798 	0.00035012 	2.57863e-22 -0.00901089 	0.00035702 	2.76475e-22 -0.00891254 	0.000386385 	3.6279e-22 -0.00878067 	0.000425627 	4.76374e-22 -0.00855304 	0.000489561 	6.58949e-22 -0.00879117 	0.000451544 	4.94722e-22 -0.00872718 	0.000470673 	3.9288e-22 -0.00861634 	0.00050069 	3.03068e-22 -0.00851361 	0.000531511 	2.14302e-22 -0.00831774 	0.000605595 	2.89363e-22 -0.00848543 	0.000571569 	2.73365e-22 -0.00835937 	0.000602169 	2.02431e-22 -0.0082415 	0.000633784 	1.31578e-22 -0.00813214 	0.000666456 	6.08109e-23 -0.00799726 	0.000731008 	-2.56122e-24 -0.00802819 	0.000722697 	4.62151e-24 -0.00790044 	0.000755569 	3.74038e-24 -0.00778132 	0.000789762 	2.77586e-24 -0.00767119 	0.000825331 	1.72449e-24 -0.00756911 	0.000867229 	-5.60967e-25 -0.0075704 	0.000866164 	-4.9793e-25 -0.0075528 	0.0008708 	-3.82573e-25 -0.00753535 	0.000875465 	-2.67162e-25 -0.00751806 	0.00088016 	-1.51694e-25 -0.0075016 	0.000884698 	-4.07136e-26 -0.00739298 	0.000916003 	5.89458e-25 -0.00729117 	0.000948612 	1.21626e-24 -0.00719643 	0.000982573 	1.83953e-24 -0.00710901 	0.00101793 	2.45914e-24 -0.00691263 	0.00112442 	9.34766e-24 -0.00677544 	0.00109881 	6.78947e-23 -0.00666297 	0.00113985 	8.29512e-23 -0.00656002 	0.00118315 	9.8763e-23 -0.00642607 	0.00125617 	1.00373e-22 -0.00614043 	0.00144527 	4.22213e-23 -0.00599526 	0.00140106 	1.35392e-22 -0.00585584 	0.00136776 	2.20301e-22 -0.00574896 	0.00143094 	2.3471e-22 -0.00550394 	0.00161064 	1.57722e-22 -0.00528676 	0.00180696 	8.1505e-23 -0.0051593 	0.00178393 	1.76532e-22 -0.00499923 	0.00179221 	2.39292e-22 -0.00475303 	0.00188526 	2.1544e-22 -0.00453123 	0.00199357 	1.89608e-22 -0.00437013 	0.00217927 	1.22612e-22 -0.00435296 	0.00217968 	1.36814e-22 -0.00433099 	0.00218508 	1.43664e-22 -0.00429952 	0.0022003 	1.36004e-22 -0.00426865 	0.00221595 	1.28293e-22 -0.00424033 	0.00223099 	1.21027e-22 -0.00406382 	0.00232619 	9.20412e-23 -0.00390317 	0.00243489 	6.21555e-23 -0.00375962 	0.00255781 	3.13526e-23 -0.00358347 	0.0027031 	2.60631e-23 -0.00337119 	0.00290987 	2.88488e-23 -0.00327761 	0.00297576 	1.63946e-23 -0.00319282 	0.00305022 	3.92131e-24 -0.00310684 	0.0031241 	2.44613e-23 -0.0030253 	0.00320241 	6.01332e-23 -0.00297136 	0.00326717 	8.67011e-23 -0.00282903 	0.00339413 	8.49711e-23 -0.00269972 	0.0035369 	8.16679e-23 -0.00258457 	0.00366225 	7.68193e-23 -0.00248168 	0.00378036 	7.06274e-23 -0.0023358 	0.00398613 	5.89277e-23 -0.00229952 	0.0040437 	9.54524e-23 -0.00226535 	0.00410412 	1.30814e-22 -0.00223327 	0.0041673 	1.65032e-22 -0.00222834 	0.00420583 	9.01439e-23 -0.00222905 	0.00423777 	9.63623e-26 -0.00199868 	0.00438758 	-2.77549e-22 -0.00180193 	0.00458588 	-5.39357e-22 -0.00174651 	0.00483194 	-5.94902e-22 -0.00179394 	0.00498781 	-4.65875e-22 -0.00183287 	0.00511465 	-3.6163e-22 -0.00160169 	0.00537184 	-2.62597e-22 -0.00147302 	0.00555621 	-1.74242e-22 -0.00142176 	0.00567046 	-9.6188e-23 -0.00137492 	0.0057978 	-1.63295e-23 -0.00143396 	0.00597167 	-4.50675e-23 -0.00133394 	0.0061427 	0 -0.00131214 	0.00620225 	0 -0.00129122 	0.00626489 	0 -0.00127115 	0.00633053 	0 -0.00124059 	0.00643951 	0 -0.00122184 	0.00651268 	0 -0.00120394 	0.0065889 	0 -0.00118685 	0.00666809 	0 -0.00117056 	0.00675015 	0 -0.00119386 	0.00671847 	0 -0.0010954 	0.0068271 	0 -0.00106019 	0.00700364 	0 -0.00102848 	0.0071947 	0 -0.00100924 	0.00736816 	0 -0.00109562 	0.0072004 	0 -0.00093994 	0.0073284 	0 -0.000861421 	0.007529 	0 -0.000840034 	0.00777639 	0 -0.000903273 	0.00773029 	0 -0.0010042 	0.00750856 	0 -0.000838642 	0.00769526 	0 -0.000680466 	0.00794141 	0 -0.000679649 	0.0081656 	0 -0.000804345 	0.00793439 	0 -0.00092047 	0.00765591 	0 -0.000743837 	0.00790661 	0 -0.000575814 	0.0082337 	0 -0.000565218 	0.0082357 	0 -0.000707789 	0.00796252 	0 -0.000840315 	0.00762501 	0 -0.000650913 	0.00794569 	0 -0.00047178 	0.00836505 	0 -0.000456287 	0.00814097 	0 -0.00061289 	0.00783011 	0 -0.000763469 	0.00743234 	0 -0.000559164 	0.00783003 	0 -0.000423739 	0.00807193 	0 -0.000410236 	0.00781471 	0 -0.000511066 	0.00748067 	0 -0.000682364 	0.00702397 	0 -0.00046062 	0.0075071 	0 -0.000375264 	0.00751926 	0 -0.000361049 	0.00723443 	0 -0.000399472 	0.00690425 	0 -0.000595194 	0.00639574 	0 -0.000353058 	0.00697457 	0 -0.000323064 	0.00671839 	0 -0.000307797 	0.00640091 	0 -0.00029253 	0.00608342 	0 -0.000499855 	0.00554169 	0 -0.000279708 	0.00596043 	0 -0.000262969 	0.00560374 	0 -0.00024623 	0.00524704 	0 -0.000229491 	0.00489034 	0 -0.000383644 	0.00433866 	2.32471e-37 -0.000205982 	0.00443915 	0 -0.000187201 	0.0040344 	0 -0.00016842 	0.00362965 	0 -0.000149639 	0.00322489 	0 -0.000235935 	0.00268993 	2.39166e-40 -0.000120545 	0.0025893 	0 -0.000104505 	0.00224477 	0 -8.84654e-05 	0.00190023 	0 -7.24257e-05 	0.0015557 	0 -5.12512e-05 	0.000581455 	-2.3828e-38 -2.67009e-05 	0.000561776 	0 -2.30915e-05 	0.000485836 	0 -1.94822e-05 	0.000409897 	0 -1.58728e-05 	0.000333957 	0 0 	0 	0
-0.0170635 	0.000156549 	0 -0.0172722 	0.000203079 	0 -0.0173762 	0.000242943 	-2.31286e-24 -0.0173573 	0.000275072 	-7.2995e-24 -0.0171843 	0.000336575 	-6.09738e-23 -0.0168964 	0.000421167 	-1.527e-22 -0.0170623 	0.000444218 	-7.45237e-22 -0.017155 	0.000470348 	-1.12844e-21 -0.0171203 	0.000501735 	-1.15058e-21 -0.0168912 	0.000581827 	-8.06172e-22 -0.0165793 	0.000685657 	-2.89015e-22 -0.016702 	0.000687989 	-6.54338e-22 -0.0167916 	0.000695856 	-9.34046e-22 -0.0167429 	0.000727291 	-8.51623e-22 -0.016442 	0.000836268 	-3.69398e-22 -0.0161156 	0.000959041 	1.74777e-22 -0.0161962 	0.00094403 	9.51426e-22 -0.0162743 	0.000928751 	1.72833e-21 -0.0161891 	0.000970334 	1.79296e-21 -0.0158392 	0.00110906 	1.13662e-21 -0.0155081 	0.00125046 	4.78643e-22 -0.0155491 	0.00122209 	8.63106e-22 -0.0155863 	0.00119317 	1.24799e-21 -0.015433 	0.00125389 	1.17822e-21 -0.0150865 	0.00140988 	6.62381e-22 -0.0147609 	0.00156958 	1.45778e-22 -0.0147661 	0.00153245 	1.19739e-23 -0.0147669 	0.00149452 	-1.21665e-22 -0.0145137 	0.00157481 	-1.33064e-22 -0.0141814 	0.00174736 	-8.24232e-23 -0.0138715 	0.0019249 	-3.19325e-23 -0.0138458 	0.00188427 	-3.81411e-23 -0.0137033 	0.00190285 	-3.81627e-23 -0.0134136 	0.00200316 	-2.99286e-23 -0.0131312 	0.00213064 	-2.04491e-23 -0.0128467 	0.00232555 	-7.57734e-24 -0.0127724 	0.00230173 	-4.59112e-24 -0.0124788 	0.00240822 	1.01948e-23 -0.0122 	0.00252071 	2.50654e-23 -0.011937 	0.00263955 	4.00235e-23 -0.0116877 	0.00277597 	5.5192e-23 -0.0116825 	0.00277435 	6.0502e-23 -0.0116631 	0.0027822 	6.06229e-23 -0.0116438 	0.00279008 	6.07398e-23 -0.0116246 	0.002798 	6.08529e-23 -0.0116059 	0.00280575 	6.09592e-23 -0.011347 	0.00291941 	6.60294e-23 -0.0111024 	0.00304014 	7.05513e-23 -0.0108728 	0.00316832 	7.44928e-23 -0.0106546 	0.00330654 	7.81772e-23 -0.0102656 	0.00354462 	9.49709e-23 -0.00998843 	0.00363692 	6.06155e-23 -0.00972774 	0.00374016 	2.61506e-23 -0.00947717 	0.00392159 	1.77164e-23 -0.00912793 	0.00417071 	3.42641e-23 -0.00878305 	0.00446121 	5.0588e-23 -0.00862546 	0.00455316 	2.05513e-23 -0.00844904 	0.0046625 	0 -0.00822296 	0.00480249 	0 -0.00801109 	0.00495334 	0 -0.00787728 	0.00506333 	0 -0.00775798 	0.00517467 	0 -0.00764402 	0.00529058 	0 -0.00753548 	0.0054111 	0 -0.00739108 	0.00553335 	0 -0.00723444 	0.0056763 	0 -0.00691487 	0.00591541 	0 -0.00663131 	0.00618898 	0 -0.0063318 	0.00645622 	0 -0.00605813 	0.0067485 	0 -0.00592479 	0.00693401 	0 -0.00585008 	0.00704144 	0 -0.00577809 	0.00715167 	0 -0.00570212 	0.00724652 	1.10856e-23 -0.00562577 	0.00733599 	2.703e-23 -0.0055393 	0.0074437 	4.56711e-23 -0.00532341 	0.00769042 	5.33084e-23 -0.00512956 	0.00796241 	6.27252e-23 -0.00496045 	0.00824445 	7.01449e-23 -0.00483536 	0.00844288 	5.13494e-23 -0.00474716 	0.00861317 	3.74315e-23 -0.00447357 	0.00899508 	6.97163e-23 -0.00423822 	0.00937319 	6.7806e-23 -0.00406923 	0.00963614 	-6.90038e-23 -0.00391583 	0.00992187 	-2.01857e-22 -0.00376242 	0.0103352 	-4.37161e-22 -0.00373462 	0.0104028 	-4.84682e-22 -0.00371321 	0.0104516 	-4.77221e-22 -0.0036951 	0.0104911 	-4.42212e-22 -0.00367723 	0.010531 	-4.074e-22 -0.00365777 	0.0105754 	-3.69237e-22 -0.0035273 	0.0108613 	-2.77745e-22 -0.00340883 	0.011168 	-1.87412e-22 -0.0033016 	0.0114939 	-9.81932e-23 -0.00324206 	0.0117759 	-3.24764e-23 -0.00330518 	0.0118665 	-3.90937e-23 -0.00302206 	0.0122411 	-2.53711e-23 -0.00278069 	0.0126615 	3.56261e-23 -0.00271746 	0.0131003 	3.53576e-22 -0.00283689 	0.0132366 	6.65193e-22 -0.00294589 	0.0133553 	9.5752e-22 -0.00266238 	0.0138418 	4.85374e-22 -0.00239448 	0.0143752 	2.15634e-23 -0.00234069 	0.0145481 	0 -0.00247837 	0.0147061 	2.89084e-25 -0.00262674 	0.0148434 	5.98033e-25 -0.00234226 	0.0154534 	1.48685e-25 -0.0022244 	0.0157827 	0 -0.00218809 	0.0159687 	0 -0.0021536 	0.0161639 	0 -0.00233597 	0.0163236 	-2.51454e-22 -0.00211759 	0.016909 	0 -0.00208657 	0.0171213 	0 -0.00205726 	0.0173432 	0 -0.00202961 	0.0175743 	0 -0.00206139 	0.0177927 	1.90936e-22 -0.00200421 	0.0179955 	0 -0.00199553 	0.0180821 	0 -0.00198705 	0.01817 	0 -0.00197877 	0.018259 	0 -0.00196891 	0.0183688 	0 -0.00195426 	0.0185315 	0 -0.00194023 	0.0186978 	0 -0.0019268 	0.0188679 	0 -0.00191397 	0.0190414 	0 -0.00195039 	0.018987 	0 -0.00186217 	0.0193067 	0 -0.00184533 	0.0196058 	0 -0.00182994 	0.0199142 	0 -0.00181594 	0.0202314 	0 -0.00193321 	0.0198997 	0 -0.00173374 	0.0203636 	0 -0.00172539 	0.020725 	0 -0.00171834 	0.021095 	0 -0.00174011 	0.0213262 	0 -0.00192494 	0.0206847 	0 -0.0016828 	0.0212635 	0 -0.00159856 	0.0217646 	0 -0.0016015 	0.0222106 	0 -0.00171368 	0.0220577 	0 -0.00192212 	0.0213097 	0 -0.00165616 	0.021997 	0 -0.00145734 	0.0227106 	8.02796e-38 -0.00147304 	0.0232521 	4.4434e-37 -0.00168842 	0.0226323 	8.08738e-37 -0.00192445 	0.0217637 	1.16613e-36 -0.00163068 	0.0225754 	7.43548e-37 -0.00134693 	0.0235055 	3.26717e-37 -0.00137898 	0.0239008 	5.81034e-40 -0.00166061 	0.0230058 	1.27658e-39 -0.00192952 	0.0219988 	1.95595e-39 -0.00160327 	0.0229557 	1.15487e-39 -0.00128956 	0.0240622 	3.6584e-40 -0.00129983 	0.0241342 	-1.73689e-37 -0.0016252 	0.0231117 	-5.41205e-37 -0.00193416 	0.0219434 	-8.99238e-37 -0.00156999 	0.0230739 	-4.7757e-37 -0.00122203 	0.0243965 	-6.30453e-38 -0.00119809 	0.0240686 	0 -0.00157892 	0.0229032 	0 -0.00193768 	0.0215434 	0 -0.00152963 	0.0228874 	0 -0.00119561 	0.0241064 	0 -0.00116327 	0.0234544 	0 -0.00150734 	0.0222296 	0 -0.00193001 	0.0206375 	0 -0.00147245 	0.0222553 	0 -0.00121686 	0.0228566 	0 -0.00117389 	0.0220495 	0 -0.00138107 	0.0208482 	0 -0.00188862 	0.0189718 	0 -0.00137913 	0.0209596 	0 -0.00122183 	0.0206168 	0 -0.00115996 	0.0195728 	0 -0.00114585 	0.0184505 	0 -0.00177141 	0.0162383 	0 -0.00125947 	0.0182654 	0 -0.00116094 	0.0168365 	0 -0.00106242 	0.0154077 	0 -0.000963895 	0.0139789 	0 -0.00143162 	0.0115782 	0 -0.00101336 	0.0120482 	0 -0.000840333 	0.00999102 	0 -0.000667302 	0.00793379 	0 -0.000494271 	0.00587656 	0 -0.000484807 	0.00334349 	0 -0.000387648 	0.00363744 	0 -0.00031608 	0.0029659 	0 -0.000244513 	0.00229436 	0 -0.000172946 	0.00162282 	0 0 	0 	0
-0.024276 	0.000273671 	0 -0.0242692 	0.000360891 	-6.7548e-23 -0.0242091 	0.000459542 	-1.53895e-22 -0.024157 	0.000558543 	-2.40586e-22 -0.0241129 	0.000657897 	-3.27621e-22 -0.0240473 	0.000755869 	-4.15677e-22 -0.0239944 	0.000821281 	-5.19112e-22 -0.023911 	0.000895512 	-5.57511e-22 -0.0238323 	0.000970162 	-5.94791e-22 -0.0237584 	0.00104523 	-6.30942e-22 -0.0237374 	0.00106818 	-6.41584e-22 -0.0237096 	0.00110077 	-6.5962e-22 -0.0236827 	0.00113345 	-6.77543e-22 -0.0236567 	0.0011662 	-6.95353e-22 -0.0236317 	0.00119904 	-7.13049e-22 -0.0235889 	0.0012375 	-7.37418e-22 -0.0234514 	0.00133305 	-6.35713e-22 -0.0233099 	0.00142899 	-5.3823e-22 -0.0231768 	0.00152605 	-4.39818e-22 -0.0230524 	0.00162425 	-3.40461e-22 -0.0228447 	0.00175397 	-2.55462e-22 -0.0227131 	0.00184811 	-6.07405e-22 -0.0225402 	0.00194663 	-6.03858e-22 -0.0223762 	0.00204673 	-6.04078e-22 -0.0222214 	0.00214847 	-6.08146e-22 -0.021884 	0.00232167 	1.59427e-22 -0.0217613 	0.00240551 	-5.28483e-22 -0.0215653 	0.00250995 	-5.98825e-22 -0.021379 	0.0026166 	-6.72418e-22 -0.0211417 	0.00274967 	-5.71908e-22 -0.0207215 	0.00296335 	8.9456e-23 -0.0205641 	0.00304399 	2.69266e-23 -0.0203933 	0.00313833 	-1.28053e-23 -0.0201942 	0.00325564 	-1.22103e-23 -0.0197926 	0.0034674 	-1.9102e-23 -0.0193731 	0.00370227 	-2.70793e-23 -0.0191858 	0.00378923 	-1.56166e-23 -0.0190069 	0.00387948 	-4.10616e-24 -0.0186775 	0.00405286 	-4.13345e-25 -0.0182594 	0.00429977 	-1.88907e-24 -0.0178563 	0.00456075 	-3.3499e-24 -0.0176537 	0.00466307 	-9.71816e-25 -0.0173313 	0.0048316 	0 -0.016935 	0.00505099 	0 -0.016559 	0.00528182 	0 -0.0161901 	0.00555512 	3.94957e-24 -0.0161486 	0.00558133 	8.57499e-25 -0.0160782 	0.00562184 	0 -0.0159972 	0.00566821 	0 -0.0159172 	0.00571515 	0 -0.0158451 	0.00575837 	0 -0.0155388 	0.0059604 	0 -0.0152474 	0.00617246 	0 -0.0149715 	0.00639487 	0 -0.0146598 	0.00664436 	0 -0.0142492 	0.00695588 	0 -0.01387 	0.00721514 	0 -0.0135172 	0.00749479 	0 -0.0130799 	0.00781696 	0 -0.0126454 	0.00818073 	0 -0.0121916 	0.00864345 	0 -0.0121414 	0.00869572 	0 -0.012092 	0.00874864 	0 -0.0120257 	0.00880098 	0 -0.0119589 	0.00885394 	0 -0.0118975 	0.00890398 	0 -0.0115026 	0.00926552 	0 -0.0111371 	0.00965567 	0 -0.0107895 	0.0100667 	6.38009e-24 -0.010403 	0.0104626 	4.86307e-23 -0.00993228 	0.0110264 	1.04809e-22 -0.00983891 	0.0111503 	1.0554e-22 -0.00974842 	0.0112771 	1.06414e-22 -0.00965654 	0.011395 	1.14516e-22 -0.00956013 	0.0114957 	1.34904e-22 -0.00947443 	0.01159 	1.53643e-22 -0.00904593 	0.0121081 	3.1292e-22 -0.00865777 	0.0126723 	4.76992e-22 -0.00829899 	0.0131534 	1.3618e-22 -0.00797155 	0.0136285 	-3.72484e-22 -0.00772909 	0.0141331 	-9.88726e-22 -0.00767864 	0.0142455 	-1.13173e-21 -0.00762946 	0.0143513 	-1.21747e-21 -0.00758223 	0.0144326 	-1.11201e-21 -0.00753577 	0.0145147 	-1.00721e-21 -0.00748515 	0.0146065 	-8.91891e-22 -0.00724939 	0.0150145 	-9.6803e-22 -0.00703337 	0.0154467 	-1.03248e-21 -0.00683621 	0.0159015 	-1.0858e-21 -0.0067042 	0.0162257 	-6.94565e-22 -0.00661766 	0.0164611 	-1.41015e-22 -0.00629342 	0.0170623 	5.78074e-22 -0.00599363 	0.0177021 	1.30426e-21 -0.00579578 	0.0181208 	1.70054e-21 -0.00574087 	0.0184901 	2.14856e-21 -0.0057015 	0.0188389 	2.56707e-21 -0.00545661 	0.0195031 	3.48182e-21 -0.00531014 	0.019919 	2.92493e-21 -0.00518892 	0.0202994 	2.09846e-21 -0.00507555 	0.0206951 	1.28974e-21 -0.00490479 	0.0213564 	1.33055e-23 -0.00490416 	0.0213592 	1.05017e-23 -0.00490353 	0.021362 	7.69797e-24 -0.0049029 	0.0213647 	4.89434e-24 -0.00490227 	0.0213675 	2.0908e-24 -0.00490285 	0.0213678 	1.90634e-24 -0.0047816 	0.0218409 	-2.30924e-22 -0.00467157 	0.0223343 	-4.69546e-22 -0.00457038 	0.0228469 	-7.11624e-22 -0.00447749 	0.0233774 	-9.56925e-22 -0.00460182 	0.0234567 	-1.19984e-21 -0.00427657 	0.0240828 	-8.3593e-22 -0.00412684 	0.0247006 	6.46063e-23 -0.00405944 	0.0253191 	1.21214e-21 -0.00416589 	0.0255564 	2.12967e-21 -0.00435107 	0.0255844 	2.90851e-21 -0.00401767 	0.0263403 	1.80348e-21 -0.00369734 	0.0271459 	7.1201e-22 -0.00367713 	0.0276762 	9.72194e-25 -0.00391285 	0.0277308 	2.32282e-24 -0.00413705 	0.0277586 	3.63548e-24 -0.00379308 	0.0286615 	1.85561e-24 -0.00346293 	0.0296194 	9.75606e-26 -0.00341779 	0.0298905 	0 -0.00368152 	0.0299624 	-3.54207e-21 -0.00394856 	0.0299935 	-7.18249e-21 -0.0035917 	0.0310644 	-2.43343e-21 -0.00340052 	0.031763 	0 -0.00337787 	0.0320331 	0 -0.003455 	0.0322441 	-1.67769e-24 -0.00377032 	0.0322833 	-7.42013e-24 -0.00339872 	0.0335489 	-1.80082e-25 -0.00337281 	0.0338836 	0 -0.00335676 	0.0342018 	0 -0.00334175 	0.0345271 	0 -0.00359532 	0.0346506 	2.0522e-21 -0.00336631 	0.03564 	1.83166e-37 -0.0033573 	0.0360091 	6.08474e-37 -0.00334931 	0.0363854 	1.03336e-36 -0.00334233 	0.0367688 	1.45782e-36 -0.00341064 	0.0370931 	1.94124e-36 -0.00335229 	0.0374311 	2.15093e-36 -0.00335266 	0.0375808 	1.93466e-36 -0.00335314 	0.0377312 	1.71871e-36 -0.00335374 	0.0378825 	1.50307e-36 -0.00335453 	0.0380543 	1.2597e-36 -0.0033551 	0.0383364 	9.86271e-37 -0.00335605 	0.0386214 	7.12984e-37 -0.0033574 	0.0389091 	4.39838e-37 -0.00335913 	0.0391995 	1.66831e-37 -0.00342802 	0.0390833 	3.47496e-39 -0.00333476 	0.0397182 	-2.41689e-37 -0.0033497 	0.0402385 	-5.97577e-37 -0.00336542 	0.0407645 	-9.53762e-37 -0.0033819 	0.0412958 	-1.31023e-36 -0.00358313 	0.0406513 	-1.66589e-36 -0.00330921 	0.04165 	-1.24422e-36 -0.00334646 	0.0422878 	-8.25616e-37 -0.00338411 	0.0429285 	-4.07125e-37 -0.00343058 	0.0435148 	0 -0.00378141 	0.042042 	0 -0.00337335 	0.0433861 	0 -0.0033436 	0.0443051 	0 -0.00341574 	0.0450973 	0 -0.00362475 	0.0448959 	0 -0.00403427 	0.0431383 	0 -0.00357671 	0.044756 	0 -0.0033295 	0.0462362 	0 -0.00345849 	0.0472364 	0 -0.00387507 	0.0459254 	0 -0.00435893 	0.0437869 	0 -0.00384944 	0.0457747 	0 -0.00336105 	0.0479844 	0 -0.00357792 	0.048807 	0 -0.00419066 	0.0463858 	0 -0.00476807 	0.0437083 	0 -0.00421471 	0.0462324 	0 -0.00369237 	0.0490545 	0 -0.00378981 	0.0488726 	0 -0.00453747 	0.0457591 	0 -0.00522672 	0.042271 	0 -0.00466505 	0.0456392 	0 -0.00415417 	0.0493904 	0 -0.00397845 	0.0473012 	0 -0.00478038 	0.0432474 	0 -0.00557944 	0.0384787 	0 -0.00510693 	0.0432913 	0 -0.00472176 	0.0443061 	0 -0.00437423 	0.041045 	0 -0.00438395 	0.0368439 	0 -0.00522719 	0.0300457 	0 -0.00502218 	0.0369139 	0 -0.00429824 	0.0315929 	0 -0.00357431 	0.0262718 	0 -0.00285038 	0.0209508 	0 -0.0027084 	0.0131292 	0 -0.00276653 	0.016849 	0 -0.00221186 	0.0134709 	0 -0.00165719 	0.0100928 	0 -0.00110252 	0.00671469 	0 0 	0 	0