# vtk DataFile Version 2.0
track0
ASCII
DATASET POLYDATA
POINTS 39905 float
0.05 8.57988e-20 2.57396e-18
0.05 0.00217391 -1.05592e-17
0.05 0.00217391 -1.05592e-17
0.05 0.00217391 -1.05592e-17
0.05 0.00217391 -1.05592e-17
0.05 0.00217391 -1.05592e-17
0.05 0.00217391 -1.38778e-17
0.0493333 0.00217532 -8.74301e-18
0.0486667 0.00217771 -4.37151e-18
0.048 0.00218162 -5.94253e-18
0.0473334 0.00218867 -2.25709e-18
0.0466667 0.0021983 -2.77556e-18
0.046 0.0022104 1.66533e-18
0.0453333 0.00222189 -1.59593e-18
0.0446667 0.00223397 3.89615e-19
0.044 0.00224904 -2.83976e-19
0.0433333 0.00226759 -1.38778e-17
0.0426667 0.00229001 -1.11022e-18
0.0419999 0.00231044 -2.63721e-18
0.0413332 0.00233111 -1.23172e-19
0.0406666 0.00235472 -3.92139e-18
0.04 0.0023823 -6.93889e-18
0.0393333 0.00241505 -3.19189e-18
0.0386665 0.00244463 -9.0181e-19
0.0379997 0.00247496 9.6647e-20
0.0373331 0.00250828 8.24397e-18
0.0366667 0.00254544 1.38778e-17
0.036 0.00258898 9.29812e-18
0.0353331 0.0026284 1.74886e-17
0.0346663 0.00267012 2.47333e-17
0.0339997 0.00271502 1.60495e-17
0.0333333 0.00276323 2.22045e-17
0.0326667 0.00281857 2.67841e-17
0.0319998 0.00287083 2.47723e-17
0.0313331 0.00292651 2.16654e-17
0.0306668 0.00298573 1.68379e-17
0.03 0.00304872 2.498e-17
0.0294501 0.00310565 1.47935e-17
0.0289003 0.00316227 1.43214e-17
0.0283507 0.00322156 1.50849e-17
0.0278014 0.00328361 1.9848e-17
0.0273807 0.00333333 1.98249e-17
0.0272379 0.00335081 1.94681e-17
0.0270951 0.00336849 1.77237e-17
0.0269524 0.00338638 1.87548e-17
0.0268096 0.00340447 1.83983e-17
0.0266667 0.00342281 2.2428e-17
0.026 0.00351124 1.70977e-17
0.0253338 0.00360287 2.01022e-17
0.0246682 0.0036993 2.44917e-17
0.0240034 0.00380074 1.8313e-17
0.0233333 0.00390835 1.70835e-17
0.0226667 0.00403438 1.20164e-17
0.0219994 0.00415718 1.45875e-17
0.0213331 0.0042853 1.23533e-17
0.0206681 0.00441953 1.38741e-17
0.02 0.0045709 2.33695e-17
0.0193333 0.00474951 2.26257e-17
0.0186665 0.00492746 1.59037e-17
0.0179995 0.0051047 1.66547e-17
0.0173359 0.00529452 1.80829e-17
0.0166667 0.00551546 1.80411e-17
0.0160581 0.0057457 2.37246e-17
0.0154504 0.00597818 2.29826e-17
0.014847 0.00622162 2.36984e-17
0.0142507 0.00648198 1.96804e-17
0.0138602 0.00666667 2.13271e-17
0.0137548 0.00671923 1.31759e-17
0.0136498 0.0067725 1.05752e-17
0.0135452 0.00682649 1.3525e-17
0.0134409 0.0068812 9.71914e-18
0.0133333 0.00693886 2.32226e-18
0.0126667 0.00730522 5.1816e-18
0.0120124 0.00769334 5.92303e-18
0.0113735 0.00810623 4.69229e-18
0.0107519 0.00854474 1.28446e-17
0.01 0.00913597 1.80411e-17
0.00980753 0.00930878 2.26852e-17
0.00961678 0.00948347 1.76106e-17
0.00942775 0.00966003 1.52239e-17
0.00924051 0.00983848 1.96134e-17
0.00907446 0.01 2.498e-17
0.0085929 0.010477 1.78449e-17
0.0081346 0.0109764 1.35548e-17
0.00770103 0.0114974 9.44477e-18
0.00729115 0.0120373 1.11789e-17
0.00666667 0.012932 6.93889e-18
0.00661761 0.0130122 2.69386e-18
0.00656885 0.0130927 1.22488e-18
0.00652039 0.0131733 3.91974e-18
0.00647222 0.0132541 -3.83952e-18
0.00642517 0.0133333 0
0.00603002 0.014 -1.80411e-18
0.005671 0.0146868 -2.60091e-18
0.00534246 0.0153887 1.61583e-19
0.00504074 0.0161025 4.56868e-18
0.00480468 0.0166667 4.36931e-18
0.00452773 0.0173333 2.28972e-18
0.00428997 0.018015 1.13786e-18
0.00407847 0.0187052 -4.06245e-18
0.00387765 0.0193986 -9.25628e-18
0.003713 0.02 -1.07325e-17
0.00363707 0.0202733 -1.27494e-17
0.00356742 0.0205482 -1.05791e-17
0.00349981 0.0208236 -7.92617e-18
0.00343378 0.0210995 -1.63774e-17
0.00333333 0.0215298 -6.95876e-18
0.00325236 0.0218905 -7.07374e-18
0.00317373 0.0222517 -9.98025e-18
0.00309735 0.0226134 9.94786e-19
0.00302315 0.0229756 -5.16552e-19
0.00295203 0.0233333 0
0.0028153 0.024 -3.88578e-18
0.00269345 0.0246695 -2.57219e-18
0.00257918 0.0253404 4.96104e-19
0.00247189 0.0260125 2.70533e-18
0.00236926 0.0266667 6.93889e-18
0.0022536 0.0273333 7.91034e-18
0.00215655 0.028003 1.0277e-17
0.00207444 0.0286746 1.69855e-17
0.00199795 0.0293469 1.29791e-17
0.00191297 0.03 1.80411e-17
0.0018136 0.0306667 1.69309e-17
0.00173405 0.031336 1.61632e-17
0.00167333 0.0320073 1.46636e-17
0.0016147 0.0326788 1.20073e-17
0.00154399 0.0333333 1.19811e-17
0.00145775 0.034 1.75265e-17
0.00139271 0.0346691 1.52273e-17
0.00134724 0.0353398 1.47139e-17
0.00130274 0.0360105 2.05057e-17
0.00124427 0.0366667 2.11732e-17
0.00116895 0.0373333 1.54005e-17
0.00111642 0.0380022 2.60388e-17
0.00107827 0.038672 2.61507e-17
0.00104013 0.0393418 2.56161e-17
0.000992615 0.04 2.9572e-17
0.000926608 0.0406667 3.5233e-17
0.000885364 0.0413353 3.19744e-17
0.000852224 0.0420044 3.23973e-17
0.000819084 0.0426735 4.36333e-17
0.000781756 0.0433333 3.75559e-17
0.000723854 0.044 4.04279e-17
0.0006931 0.0446685 4.40903e-17
0.000664307 0.045337 4.07252e-17
0.000635515 0.0460056 4.20404e-17
0.000607044 0.0466667 4.61735e-17
0.000556256 0.0473333 4.43326e-17
0.00053126 0.0480015 4.6441e-17
0.000506264 0.0486696 4.48898e-17
0.000481268 0.0493377 4.55118e-17
0.000456491 0.05 4.7812e-17
0.000411925 0.0506667 5.03843e-17
0.000390208 0.0513345 5.29203e-17
0.000368491 0.0520023 5.73809e-17
0.000346775 0.0526701 5.59218e-17
0.000325205 0.0533333 5.35818e-17
0.000285966 0.054 5.37165e-17
0.000266974 0.0546676 6.0064e-17
0.000247983 0.0553351 4.83611e-17
0.000228991 0.0560027 4.75964e-17
0.000210101 0.0566667 3.98957e-17
0.000175178 0.0573333 4.38396e-17
0.000158243 0.0580007 4.35914e-17
0.000141309 0.0586681 4.41984e-17
0.000124374 0.0593354 4.13523e-17
0.00010751 0.06 4.42299e-17
8.60084e-05 0.06045 4.67497e-17
7.53664e-05 0.0609003 4.43949e-17
6.47244e-05 0.0613506 4.51626e-17
5.40824e-05 0.061801 4.81751e-17
1.78718e-05 0.0633333 4.02158e-17
1.42974e-05 0.0634116 4.40384e-17
1.24353e-05 0.0634899 4.96796e-17
1.05731e-05 0.0635682 5.17213e-17
8.71096e-06 0.0636465 5.28956e-17
0 0.0640127 4.7622e-17
0.05 0.00434783 5.94331e-18
0.0493333 0.00434916 7.32887e-18
0.0486667 0.00435348 4.54613e-18
0.048 0.00436013 -8.32741e-19
0.0473334 0.00436845 5.12371e-18
0.0466667 0.00437968 1.28292e-17
0.046 0.00439495 9.33428e-18
0.0453334 0.00441182 1.20817e-17
0.0446668 0.00443029 7.84174e-18
0.0440002 0.00445037 2.76287e-18
0.0433333 0.00447436 1.35577e-18
0.0426667 0.00450359 5.71381e-18
0.042 0.00453322 9.38063e-18
0.0413334 0.0045635 1.06164e-17
0.0406669 0.00459542 1.01109e-17
0.04 0.00463296 4.42764e-18
0.0393333 0.00467701 8.86455e-18
0.0386666 0.00472049 7.75132e-18
0.0379999 0.00476337 7.44708e-18
0.0373333 0.00480855 8.28547e-18
0.0366667 0.00486131 7.11043e-18
0.036 0.00492196 -4.68462e-18
0.0353332 0.00498132 -9.05075e-18
0.0346663 0.00503936 -8.8885e-18
0.0339997 0.00510109 -5.22465e-18
0.0333333 0.00517181 0
0.0326667 0.00525197 2.77556e-19
0.0319998 0.00533042 3.33118e-18
0.0313327 0.00540711 -8.76657e-19
0.0306664 0.00548984 3.34758e-18
0.03 0.00558269 -6.93889e-18
0.0293333 0.00568668 -7.35523e-18
0.0286664 0.0057889 -8.53438e-18
0.028 0.00589454 -6.69821e-18
0.0273348 0.00600748 -6.59877e-18
0.0266667 0.00612891 0
0.0261321 0.00623646 -4.66096e-18
0.0255977 0.00634411 -7.24029e-18
0.0250643 0.00645713 -5.05098e-18
0.0245321 0.00657575 -9.2573e-18
0.0241444 0.00666667 -1.59223e-17
0.0239821 0.00670613 -1.01011e-17
0.0238201 0.00674619 -1.60762e-17
0.0236582 0.00678686 -1.02554e-17
0.0234964 0.00682814 -9.98607e-18
0.0233333 0.00687042 -5.89044e-18
0.0226667 0.00704825 -1.45133e-17
0.0220025 0.00723521 -6.49793e-18
0.0213415 0.00743299 -9.83288e-18
0.020684 0.0076421 -3.33098e-18
0.02 0.00787642 -2.87609e-18
0.0193333 0.00813007 6.08421e-18
0.0186708 0.00839428 3.33752e-18
0.0180128 0.00866964 5.52314e-18
0.0173622 0.00896217 5.89166e-18
0.0166667 0.00930364 6.93889e-18
0.0164082 0.00944291 1.20596e-17
0.0161509 0.00958416 9.18564e-18
0.0158948 0.00972765 9.61217e-18
0.0156403 0.00987409 1.21176e-17
0.0154274 0.01 1.80411e-17
0.0150086 0.0102533 1.9007e-17
0.0145959 0.0105166 2.04488e-17
0.0141898 0.0107899 1.38392e-17
0.0137907 0.0110731 1.90666e-17
0.0133333 0.011418 1.42919e-17
0.0128604 0.0118011 2.14169e-17
0.0123977 0.0121964 1.50953e-17
0.0119458 0.012604 1.75763e-17
0.0115053 0.013024 2.55838e-17
0.0111985 0.0133333 2.68823e-17
0.0109588 0.0135849 2.37263e-17
0.0107247 0.0138416 3.02293e-17
0.0104961 0.0141033 2.89055e-17
0.0102731 0.0143697 2.62512e-17
0.01 0.0147098 1.98998e-17
0.00970155 0.0151012 2.58708e-17
0.00941207 0.0154992 1.56742e-17
0.00913151 0.0159036 1.39363e-17
0.00885942 0.0163138 1.16139e-17
0.00863325 0.0166667 1.80411e-17
0.00823993 0.0172984 1.45118e-17
0.00787495 0.0179469 1.55195e-17
0.00753699 0.0186099 1.59564e-17
0.0072179 0.0192822 1.55541e-17
0.00690038 0.02 1.44616e-17
0.00685364 0.0201125 7.40595e-18
0.0068077 0.0202252 6.12502e-18
0.0067624 0.0203383 4.2203e-18
0.00671763 0.0204515 6.56513e-18
0.00666667 0.0205821 7.00529e-18
0.00645524 0.0211324 6.99201e-18
0.00625461 0.0216866 2.08934e-18
0.00606419 0.0222445 5.93557e-18
0.00588337 0.0228055 1.31006e-17
0.00571902 0.0233333 1.11022e-17
0.00551001 0.024 1.20737e-17
0.00532328 0.0246732 1.30342e-17
0.00515772 0.025352 1.06661e-17
0.00499996 0.0260326 8.65848e-18
0.00484909 0.0266667 5.00066e-18
0.00468683 0.0273333 3.72799e-18
0.0045454 0.0280047 2.03128e-18
0.00442101 0.0286795 2.1991e-18
0.00430074 0.029355 -1.57004e-19
0.00418439 0.03 -7.23411e-19
0.00405895 0.0306667 -3.29006e-18
0.00395258 0.0313366 -6.43808e-18
0.00385099 0.0320074 -6.46542e-18
0.00375296 0.0326786 -5.15466e-18
0.00366076 0.0333333 2.23028e-18
0.00359528 0.0337875 1.12489e-17
0.00353555 0.0342425 9.50403e-18
0.00347735 0.0346977 1.59101e-17
0.00342064 0.0351531 1.51841e-17
0.00333333 0.0358728 1.80411e-17
0.00331486 0.0360316 1.66226e-17
0.00329655 0.0361904 1.38165e-17
0.0032784 0.0363492 1.65619e-17
0.0032604 0.036508 1.23686e-17
0.00324259 0.0366667 1.80411e-17
0.00316726 0.0373333 1.06859e-17
0.00309583 0.0380004 1.26975e-17
0.00302723 0.0386678 9.20469e-18
0.00296135 0.0393355 1.46461e-17
0.0028984 0.04 1.80411e-17
0.00283239 0.0406667 2.38698e-17
0.00277354 0.041334 2.34523e-17
0.00271724 0.0420016 3.36685e-17
0.00266336 0.0426693 3.7198e-17
[...]
POINT_DATA 39905
 FIELD attributes 1
U 3 39905 float
-6.19858e-19 	-1.49952e-21 	0
-0.0146094 	3.07742e-05 	0 -0.0146094 	3.07742e-05 	0 -0.0146094 	3.07742e-05 	0 -0.0146094 	3.07742e-05 	0 -0.0146094 	3.07742e-05 	0 -0.0146094 	3.07742e-05 	0 -0.0149374 	5.35132e-05 	0 -0.01517 	8.90432e-05 	-4.96785e-25 -0.0151296 	0.000160033 	-2.37143e-24 -0.0148801 	0.000215003 	-4.25477e-24 -0.0145609 	0.000264098 	-6.14556e-24 -0.0148806 	0.000256568 	2.39716e-22 -0.0150599 	0.000272816 	4.0351e-22 -0.014962 	0.000338237 	3.98327e-22 -0.0147321 	0.00040996 	2.38007e-22 -0.0144401 	0.000485593 	-8.65985e-24 -0.0147384 	0.000451581 	8.29688e-23 -0.014829 	0.000459832 	1.3649e-22 -0.0146843 	0.000519959 	1.43734e-22 -0.0144837 	0.000599275 	1.0768e-22 -0.0142297 	0.000699024 	2.61384e-23 -0.0144962 	0.000643192 	1.91831e-23 -0.0144693 	0.000658203 	6.50218e-24 -0.0142911 	0.000714161 	-9.39789e-24 -0.014112 	0.000787038 	-2.35596e-23 -0.0139037 	0.000907853 	-3.25596e-23 -0.0141308 	0.000835436 	-2.45888e-23 -0.0139673 	0.000873914 	-3.12819e-23 -0.0137694 	0.000927503 	-3.98755e-23 -0.0135872 	0.000982784 	-4.8582e-23 -0.0134304 	0.00111503 	-6.46984e-23 -0.0135313 	0.00106034 	-1.40857e-22 -0.0133125 	0.00111172 	-1.15019e-22 -0.0131086 	0.00116512 	-8.86545e-23 -0.0129203 	0.00122062 	-6.17427e-23 -0.0127849 	0.00132352 	9.38669e-24 -0.0127433 	0.00131226 	-4.12206e-23 -0.0125658 	0.00135555 	-2.93592e-23 -0.0123984 	0.00140051 	-1.69039e-23 -0.0122415 	0.00144718 	-3.83356e-24 -0.0121295 	0.00148431 	6.66794e-24 -0.0120942 	0.00149758 	1.0437e-23 -0.0120596 	0.00151098 	1.42525e-23 -0.0120259 	0.00152451 	1.81148e-23 -0.0119929 	0.00153817 	2.20242e-23 -0.0119244 	0.00158164 	8.12623e-24 -0.0116964 	0.00160866 	6.10786e-24 -0.0115011 	0.00166648 	7.00269e-24 -0.0113212 	0.00172745 	7.86959e-24 -0.0111572 	0.00179169 	8.70733e-24 -0.0108104 	0.00204378 	4.70955e-23 -0.0104792 	0.00192843 	3.49072e-22 -0.0102988 	0.00198036 	4.2764e-22 -0.0101428 	0.00204722 	4.93792e-22 -0.00988769 	0.00224034 	4.0283e-22 -0.00956181 	0.00256173 	1.66708e-22 -0.00927109 	0.00247407 	4.13532e-22 -0.00897879 	0.00238573 	6.60339e-22 -0.00868031 	0.00248312 	6.73816e-22 -0.0084183 	0.00277923 	4.57427e-22 -0.00820114 	0.0031028 	2.4217e-22 -0.00798774 	0.00305573 	4.34157e-22 -0.00771512 	0.00311268 	4.67555e-22 -0.00742566 	0.00324213 	4.05e-22 -0.00716878 	0.00339057 	3.39238e-22 -0.00702152 	0.00350251 	2.93342e-22 -0.00697702 	0.00353949 	2.80811e-22 -0.00693384 	0.00357732 	2.68151e-22 -0.00689199 	0.00361603 	2.55362e-22 -0.00683736 	0.00366564 	2.5395e-22 -0.00677539 	0.00372333 	2.58158e-22 -0.00639062 	0.0037911 	1.72034e-22 -0.00613249 	0.00396318 	9.35548e-23 -0.0059035 	0.00416474 	1.84273e-23 -0.00564133 	0.00443564 	2.4912e-23 -0.00536957 	0.00482107 	3.06045e-23 -0.00530947 	0.00486215 	1.76663e-23 -0.00525245 	0.00490611 	4.72189e-24 -0.00519739 	0.00495359 	2.85302e-23 -0.00514485 	0.00500438 	7.34475e-23 -0.00510068 	0.00505251 	1.13682e-22 -0.00480646 	0.0052374 	1.1424e-22 -0.00454375 	0.00546015 	1.09193e-22 -0.00431953 	0.00568934 	9.85001e-23 -0.00413202 	0.00591985 	8.26327e-23 -0.00387471 	0.00634048 	4.96008e-23 -0.00385885 	0.0063674 	8.19222e-23 -0.00384334 	0.0063948 	1.13966e-22 -0.00382819 	0.00642267 	1.45732e-22 -0.00382829 	0.00644301 	7.81524e-23 -0.00383024 	0.00646216 	3.55885e-25 -0.00346568 	0.00662975 	-6.30334e-22 -0.00326369 	0.00697256 	-1.04282e-21 -0.00311593 	0.00737181 	-1.40348e-21 -0.00320199 	0.00765224 	-1.11121e-21 -0.0032726 	0.00787787 	-8.79871e-22 -0.00286783 	0.00822153 	-5.79566e-22 -0.00261166 	0.00852292 	-3.37483e-22 -0.00252382 	0.00871473 	-1.80386e-22 -0.00244501 	0.00893066 	-1.87352e-23 -0.00257827 	0.00927848 	1.26824e-23 -0.002412 	0.00952221 	1.01782e-24 -0.00236406 	0.00962973 	0 -0.00232883 	0.00972866 	0 -0.0022952 	0.00983254 	0 -0.0022452 	0.0100019 	0 -0.00220733 	0.0101398 	0 -0.00217175 	0.0102853 	0 -0.00213839 	0.0104381 	0 -0.00210717 	0.010598 	0 -0.00216387 	0.0105505 	0 -0.00193861 	0.0106527 	0 -0.00187013 	0.0109794 	0 -0.0018101 	0.0113381 	0 -0.00181373 	0.0115619 	0 -0.00196883 	0.0113477 	0 -0.00166537 	0.0114911 	0 -0.00143956 	0.0117758 	0 -0.00139564 	0.0122662 	0 -0.00157086 	0.0120723 	0 -0.00175141 	0.0117507 	0 -0.00142822 	0.0120163 	0 -0.00112224 	0.0124071 	0 -0.00109415 	0.0125316 	0 -0.00131681 	0.01219 	0 -0.00152051 	0.0117538 	0 -0.00118167 	0.0121567 	0 -0.000862796 	0.0127248 	0 -0.000822428 	0.0123964 	0 -0.00106661 	0.0119706 	0 -0.00129 	0.011417 	0 -0.000939919 	0.011969 	0 -0.000701975 	0.0123257 	0 -0.000677989 	0.0119045 	0 -0.000822465 	0.0113936 	0 -0.00106193 	0.0107254 	0 -0.000705321 	0.0114346 	0 -0.000567379 	0.0114556 	0 -0.000546141 	0.0110268 	0 -0.000595385 	0.0105238 	0 -0.000846898 	0.00975102 	0 -0.000488649 	0.0106212 	0 -0.000443615 	0.0103007 	0 -0.000425186 	0.00987278 	0 -0.000406758 	0.00944487 	0 -0.000654435 	0.00859035 	0 -0.000349091 	0.00933105 	0 -0.000333404 	0.00891175 	0 -0.000317717 	0.00849245 	0 -0.000302031 	0.00807315 	0 -0.000482538 	0.00721831 	0 -0.000249807 	0.00768165 	0 -0.000236637 	0.00727667 	0 -0.000223467 	0.00687169 	0 -0.000210297 	0.00646671 	0 -0.000333769 	0.00567059 	2.80743e-37 -0.000166472 	0.00585153 	0 -0.000155417 	0.00546293 	0 -0.000144361 	0.00507432 	0 -0.000133305 	0.00468571 	0 -0.000209264 	0.00399478 	2.8378e-40 -9.87483e-05 	0.00389152 	0 -8.92022e-05 	0.00351533 	0 -7.96562e-05 	0.00313913 	0 -7.01101e-05 	0.00276293 	0 -0.000105569 	0.00220915 	-9.26665e-38 -4.86348e-05 	0.00205811 	0 -4.26171e-05 	0.00180345 	0 -3.65994e-05 	0.0015488 	0 -3.05817e-05 	0.00129414 	0 -1.80206e-05 	0.000394433 	0 -8.72928e-06 	0.000367024 	0 -7.59234e-06 	0.000319221 	0 -6.4554e-06 	0.000271418 	0 -5.31846e-06 	0.000223616 	0 0 	0 	0
-0.0283962 	5.67375e-05 	0 -0.028609 	0.000185295 	0 -0.0287129 	0.000286683 	-8.75519e-25 -0.0286905 	0.000357974 	-2.72055e-24 -0.0285062 	0.000480345 	-2.24451e-23 -0.0281953 	0.000645818 	-5.71955e-23 -0.0283231 	0.00071666 	-2.82605e-22 -0.0283805 	0.000786119 	-4.22448e-22 -0.0283238 	0.00085324 	-4.3018e-22 -0.0280499 	0.00100924 	-2.94795e-22 -0.0276785 	0.00121355 	-8.40157e-23 -0.0277231 	0.00123213 	-1.33726e-22 -0.0277413 	0.0012603 	-1.71903e-22 -0.0276558 	0.00132427 	-1.66558e-22 -0.0272708 	0.00153517 	-8.97746e-23 -0.0268619 	0.00177499 	-6.78767e-25 -0.0268307 	0.00174951 	6.65134e-23 -0.0267964 	0.00172367 	1.33726e-22 -0.026646 	0.00180598 	1.20642e-22 -0.0261862 	0.00207218 	4.86902e-23 -0.0257638 	0.00234412 	-2.31695e-23 -0.0256685 	0.00228503 	-1.46031e-22 -0.0255668 	0.00222495 	-2.68931e-22 -0.0252723 	0.00234065 	-2.625e-22 -0.0248189 	0.00263374 	-1.27477e-22 -0.0244057 	0.00293456 	7.93653e-24 -0.0242607 	0.00285387 	1.36822e-22 -0.0241079 	0.00277166 	2.65666e-22 -0.0236101 	0.00293143 	2.769e-22 -0.0231806 	0.00322968 	2.04717e-22 -0.0227972 	0.00355611 	1.21235e-22 -0.0226178 	0.00346667 	2.43814e-22 -0.0222465 	0.00352654 	2.75354e-22 -0.021761 	0.00369455 	2.43846e-22 -0.0213028 	0.00387175 	2.11269e-22 -0.0209646 	0.00421833 	8.18724e-23 -0.0207698 	0.00418327 	7.52288e-23 -0.0203901 	0.00432028 	1.03733e-22 -0.0200279 	0.00446423 	1.32695e-22 -0.0196841 	0.00461544 	1.62134e-22 -0.0194471 	0.00473142 	1.83999e-22 -0.0193523 	0.00478404 	1.8597e-22 -0.0192595 	0.00483747 	1.8788e-22 -0.0191688 	0.00489172 	1.8973e-22 -0.0190801 	0.00494679 	1.91517e-22 -0.0189279 	0.00504896 	1.99158e-22 -0.0184446 	0.00519204 	1.80273e-22 -0.0180399 	0.00539768 	1.84458e-22 -0.0176655 	0.0056179 	1.86446e-22 -0.0172472 	0.00590897 	2.04673e-22 -0.0166931 	0.00635133 	2.59649e-22 -0.016226 	0.00647036 	1.47122e-22 -0.015788 	0.00660707 	3.38076e-23 -0.0152518 	0.00685837 	0 -0.014814 	0.0072723 	3.6808e-23 -0.0143985 	0.00775947 	7.48909e-23 -0.0142619 	0.00782776 	3.21191e-23 -0.0141169 	0.00790872 	0 -0.0139378 	0.00802148 	0 -0.0137657 	0.00813931 	0 -0.0136269 	0.00824292 	0 -0.0133103 	0.00849163 	0 -0.0130163 	0.00875898 	0 -0.0127457 	0.00904528 	0 -0.0124168 	0.00936369 	0 -0.0120538 	0.00976376 	0 -0.01172 	0.0100153 	0 -0.0114177 	0.0102955 	0 -0.0111021 	0.0105848 	0 -0.0108064 	0.0108979 	0 -0.0106193 	0.0111434 	0 -0.0104032 	0.0114052 	0 -0.0102008 	0.0116812 	0 -0.00999642 	0.0119428 	-1.54572e-23 -0.00979306 	0.0121954 	-4.30845e-23 -0.00955419 	0.0125288 	-7.76954e-23 -0.00931811 	0.0128128 	-8.29402e-23 -0.00910267 	0.0131203 	-8.90683e-23 -0.00891231 	0.0134342 	-1.15325e-22 -0.00876718 	0.0136797 	-2.47771e-22 -0.00865587 	0.0139027 	-3.60732e-22 -0.00815375 	0.0144877 	-5.62503e-22 -0.00771072 	0.0151265 	-7.31858e-22 -0.00739714 	0.0155848 	-4.76832e-22 -0.0071175 	0.0160908 	-2.26039e-22 -0.00695555 	0.0167331 	8.60464e-23 -0.00688198 	0.0168938 	1.79787e-22 -0.00682096 	0.0170233 	2.09533e-22 -0.00677086 	0.0171252 	1.8292e-22 -0.00672183 	0.0172287 	1.56651e-22 -0.00666658 	0.0173497 	1.268e-22 -0.0064467 	0.0178096 	1.21668e-22 -0.0062485 	0.0183061 	1.17652e-22 -0.00607076 	0.0188366 	1.14684e-22 -0.00600198 	0.0192738 	1.21233e-22 -0.00610693 	0.0194795 	1.4302e-22 -0.00556953 	0.0200797 	9.05244e-23 -0.00506419 	0.0207629 	3.8969e-23 -0.00498595 	0.0215099 	1.89919e-22 -0.00519939 	0.0218508 	3.84728e-22 -0.00539147 	0.0221525 	5.64754e-22 -0.00484146 	0.0229833 	2.55907e-22 -0.00438712 	0.0237979 	0 -0.00428982 	0.0240929 	0 -0.00440957 	0.0244471 	3.07585e-25 -0.00466718 	0.0248036 	8.11978e-25 -0.00410951 	0.025884 	5.62431e-26 -0.00398002 	0.0262754 	0 -0.00388936 	0.0266321 	0 -0.00380356 	0.0270117 	0 -0.00394977 	0.0273951 	-1.32636e-22 -0.00368234 	0.0280515 	0 -0.00362022 	0.0283143 	0 -0.00356031 	0.0285889 	0 -0.00350254 	0.028875 	0 -0.00341458 	0.0293446 	0 -0.00339664 	0.0294526 	0 -0.00337893 	0.0295619 	0 -0.00336145 	0.0296724 	0 -0.0033442 	0.0297841 	0 -0.00336175 	0.0297527 	0 -0.00323246 	0.030187 	0 -0.00314896 	0.0306355 	0 -0.00306966 	0.0311098 	0 -0.00299439 	0.0316088 	0 -0.00310078 	0.0313179 	0 -0.00281751 	0.0319499 	0 -0.00273752 	0.0324545 	0 -0.00266138 	0.0329858 	0 -0.00259147 	0.0335299 	0 -0.00282969 	0.0325806 	0 -0.00247145 	0.0334507 	0 -0.00234363 	0.0340704 	0 -0.00227026 	0.0346504 	0 -0.00231287 	0.034649 	0 -0.00255592 	0.03355 	0 -0.00220084 	0.0345804 	0 -0.00197393 	0.0354624 	0 -0.00190389 	0.0360815 	0 -0.00204576 	0.0355089 	0 -0.00229057 	0.0342647 	0 -0.00194305 	0.0354504 	0 -0.00163999 	0.0366595 	7.44854e-38 -0.00157538 	0.0373077 	6.24936e-37 -0.00180214 	0.0361625 	1.17689e-36 -0.00204716 	0.0347803 	1.72193e-36 -0.00171076 	0.0361131 	1.11253e-36 -0.00138202 	0.0375802 	5.09381e-37 -0.00134031 	0.0380417 	7.65871e-40 -0.00159311 	0.0366277 	1.63557e-39 -0.00183946 	0.0351148 	2.49447e-39 -0.00151647 	0.0365848 	1.54684e-39 -0.00120058 	0.0381942 	6.08582e-40 -0.00117417 	0.0384526 	-3.71377e-37 -0.00143323 	0.0369219 	-9.28954e-37 -0.00168606 	0.0352829 	-1.48e-36 -0.00137713 	0.0368822 	-8.77922e-37 -0.00107491 	0.0386254 	-2.81583e-37 -0.00106529 	0.0387109 	0 -0.00134225 	0.0370654 	0 -0.00161261 	0.0352967 	0 -0.00131672 	0.0370248 	0 -0.00102751 	0.0389026 	0 -0.00103045 	0.038817 	0 -0.00134562 	0.0370466 	0 -0.00165277 	0.0351268 	0 -0.00136795 	0.0370006 	0 -0.00109049 	0.0390342 	0 -0.001089 	0.0387261 	0 -0.00147425 	0.0367954 	0 -0.00184776 	0.0346678 	0 -0.00157362 	0.0367414 	0 -0.00131972 	0.0388495 	0 -0.00129673 	0.0381729 	0 -0.00175232 	0.0361014 	0 -0.00223219 	0.0336435 	0 -0.00197591 	0.0360477 	0 -0.00178374 	0.0376292 	0 -0.00173437 	0.0365877 	0 -0.00214733 	0.0344382 	0 -0.0027771 	0.0314094 	0 -0.00256627 	0.034434 	0 -0.00241226 	0.0348255 	0 -0.00229225 	0.033093 	0 -0.00243885 	0.0307793 	0 -0.00324335 	0.0267575 	0 -0.00315033 	0.031019 	0 -0.00285865 	0.0283802 	0 -0.00255607 	0.0253763 	0 -0.00225349 	0.0223723 	0 -0.00282392 	0.0172308 	0 -0.00272191 	0.0195883 	0 -0.00214282 	0.0154209 	0 -0.00156373 	0.0112534 	0 -0.000984641 	0.007086 	0 0 	0 	0
-0.0412428 	7.72025e-05 	0 -0.0412103 	0.000278057 	-2.53919e-23 -0.0411276 	0.000499423 	-5.79773e-23 -0.0410645 	0.000721308 	-9.07357e-23 -0.041021 	0.000943708 	-1.23667e-22 -0.0409553 	0.0011577 	-1.57078e-22 -0.0408106 	0.00134369 	-1.96973e-22 -0.0406301 	0.00155145 	-2.02795e-22 -0.0404683 	0.00176068 	-2.07658e-22 -0.0403255 	0.0019714 	-2.11549e-22 -0.040292 	0.00202879 	-2.12336e-22 -0.0402761 	0.00206009 	-2.13502e-22 -0.0402605 	0.00209142 	-2.14658e-22 -0.0402454 	0.00212278 	-2.15805e-22 -0.0402307 	0.00215418 	-2.16944e-22 -0.0402053 	0.00219105 	-2.19302e-22 -0.0399386 	0.0023884 	-1.83402e-22 -0.0396859 	0.00258712 	-1.47663e-22 -0.0394525 	0.0027884 	-1.11634e-22 -0.0392389 	0.00299227 	-7.53117e-23 -0.0389335 	0.00325683 	-4.46738e-23 -0.0386322 	0.00344267 	-7.04544e-23 -0.0383215 	0.00363633 	-6.33197e-23 -0.0380302 	0.00383353 	-5.6488e-23 -0.037759 	0.00403436 	-4.99665e-23 -0.0372514 	0.0043805 	3.66375e-23 -0.0369056 	0.00452765 	1.26602e-22 -0.036559 	0.00472272 	1.56433e-22 -0.0362327 	0.00492248 	1.86994e-22 -0.0358274 	0.00518567 	1.79064e-22 -0.0352105 	0.00559637 	7.90151e-23 -0.03481 	0.00572251 	4.72172e-23 -0.0344316 	0.00587012 	2.49972e-23 -0.0340933 	0.00608036 	3.57384e-23 -0.0334618 	0.00649502 	6.40543e-23 -0.0328583 	0.00693269 	9.23802e-23 -0.0324341 	0.00705793 	5.00651e-23 -0.0320268 	0.00718962 	7.57644e-24 -0.0313907 	0.00749298 	0 -0.0307999 	0.00793675 	1.43681e-23 -0.0302416 	0.00840924 	2.88431e-23 -0.0298249 	0.00855204 	4.1694e-24 -0.0292015 	0.00886335 	0 -0.0285675 	0.00922534 	0 -0.0279739 	0.00960824 	0 -0.0274679 	0.00997964 	0 -0.0274554 	0.00999082 	0 -0.0274429 	0.010002 	0 -0.0274304 	0.0100132 	0 -0.0274157 	0.0100257 	0 -0.0273966 	0.0100405 	0 -0.0267602 	0.0104176 	0 -0.0261709 	0.0108258 	0 -0.0256243 	0.0112607 	0 -0.0250237 	0.011771 	0 -0.0242745 	0.0124348 	0 -0.023664 	0.0128128 	0 -0.0230805 	0.013233 	0 -0.0223694 	0.0137571 	0 -0.0217222 	0.0143273 	0 -0.0210838 	0.0150054 	0 -0.0210777 	0.0150137 	0 -0.0210716 	0.0150219 	0 -0.0210653 	0.0150302 	0 -0.021057 	0.0150386 	0 -0.0210487 	0.0150471 	0 -0.0203102 	0.0156453 	0 -0.019644 	0.016309 	0 -0.0190274 	0.0170281 	4.84862e-25 -0.0183477 	0.0177642 	4.58987e-24 -0.0175489 	0.0188184 	1.00099e-23 -0.017467 	0.0189284 	1.00344e-23 -0.0173869 	0.0190399 	1.00626e-23 -0.0173037 	0.0191447 	5.49447e-24 -0.0172156 	0.019239 	-5.62456e-24 -0.0171332 	0.0193304 	-1.62146e-23 -0.0163778 	0.0201401 	1.95997e-24 -0.0156997 	0.0210378 	2.37442e-23 -0.0150687 	0.0218701 	-2.86235e-23 -0.0145374 	0.0227211 	-1.44797e-22 -0.0141848 	0.023516 	-2.61148e-22 -0.0140838 	0.0237256 	-3.41087e-22 -0.0139848 	0.0239314 	-4.0313e-22 -0.0138857 	0.0240912 	-3.28179e-22 -0.0137886 	0.0242534 	-2.53786e-22 -0.0136825 	0.0244369 	-1.71367e-22 -0.0132694 	0.0251082 	1.35048e-22 -0.0128941 	0.0258269 	4.32183e-22 -0.0125552 	0.0265904 	7.20304e-22 -0.0123335 	0.0271407 	5.10986e-22 -0.0121791 	0.0275865 	1.92347e-22 -0.0115637 	0.0286016 	-6.22916e-23 -0.0109993 	0.029696 	-3.20445e-22 -0.010637 	0.0303749 	3.84923e-23 -0.0104358 	0.0311079 	8.01835e-22 -0.0103496 	0.031816 	1.71145e-21 -0.0100022 	0.0326627 	2.38497e-21 -0.00976669 	0.0332355 	2.13221e-21 -0.00957069 	0.0337402 	1.61443e-21 -0.00938474 	0.0342636 	1.10776e-21 -0.00912467 	0.0350623 	3.76105e-22 -0.00905081 	0.035316 	2.8201e-22 -0.00897878 	0.0355732 	1.88123e-22 -0.00890855 	0.0358339 	9.4439e-23 -0.00884248 	0.0360937 	2.79476e-24 -0.00889771 	0.0361384 	2.93851e-24 -0.00843801 	0.037016 	-9.87762e-23 -0.00818309 	0.0379527 	-3.08911e-22 -0.00794892 	0.0389338 	-5.22943e-22 -0.00784317 	0.039736 	-7.4039e-22 -0.00807522 	0.039885 	-9.52832e-22 -0.00743374 	0.040986 	-6.281e-22 -0.00688825 	0.0421598 	-1.20178e-22 -0.00670629 	0.0432956 	1.25821e-21 -0.00699411 	0.043457 	2.34108e-21 -0.00726564 	0.043585 	3.38699e-21 -0.00661814 	0.0449059 	1.90431e-21 -0.00599642 	0.0463251 	4.41865e-22 -0.00584829 	0.0469532 	7.29232e-25 -0.00616693 	0.0470834 	3.53507e-24 -0.00646975 	0.0471749 	6.26376e-24 -0.00582065 	0.0487109 	2.641e-24 -0.00532972 	0.0499984 	0 -0.00522949 	0.0503787 	0 -0.00537497 	0.0505829 	-3.03976e-21 -0.00569962 	0.0506196 	-8.33613e-21 -0.00505392 	0.0523596 	-1.67706e-21 -0.00481856 	0.0531006 	0 -0.00472172 	0.0535082 	0 -0.00463235 	0.0539301 	-1.18601e-25 -0.00497008 	0.0538927 	-1.04691e-23 -0.00441775 	0.0555613 	0 -0.00432301 	0.0559688 	0 -0.00423056 	0.0563963 	0 -0.00414035 	0.0568436 	0 -0.00429397 	0.0569553 	2.45623e-21 -0.00394445 	0.0581518 	3.18532e-37 -0.00385687 	0.0585726 	9.33421e-37 -0.00377124 	0.0590128 	1.54725e-36 -0.00368752 	0.0594721 	2.16004e-36 -0.00369023 	0.0597945 	2.8776e-36 -0.00355179 	0.060359 	3.13184e-36 -0.00350547 	0.0606147 	2.64007e-36 -0.00345973 	0.0608769 	2.15073e-36 -0.00341457 	0.0611456 	1.66382e-36 -0.00335605 	0.0615068 	1.02793e-36 -0.00333019 	0.061674 	8.12039e-37 -0.00330452 	0.0618434 	5.9626e-37 -0.00327905 	0.062015 	3.80591e-37 -0.00325376 	0.0621887 	1.6503e-37 -0.00325686 	0.0621724 	4.41658e-39 -0.00317154 	0.0626954 	-4.8636e-37 -0.00311446 	0.0631334 	-1.03291e-36 -0.00305855 	0.063586 	-1.58021e-36 -0.0030038 	0.0640528 	-2.12825e-36 -0.00304893 	0.0638024 	-2.67631e-36 -0.00292002 	0.0646461 	-2.07423e-36 -0.0028947 	0.0650981 	-1.47358e-36 -0.00287006 	0.0655588 	-8.73315e-37 -0.00284606 	0.066028 	-2.7343e-37 -0.00298009 	0.0652279 	0 -0.00281387 	0.0664326 	0 -0.00284069 	0.0669162 	0 -0.0028674 	0.0673986 	0 -0.00289403 	0.0678798 	0 -0.00312804 	0.0664813 	0 -0.00291318 	0.0681074 	0 -0.00302435 	0.0686575 	0 -0.00313404 	0.0691893 	0 -0.00324229 	0.0697033 	0 -0.00360104 	0.0675628 	0 -0.0033269 	0.0696364 	0 -0.00353878 	0.0704019 	0 -0.00378021 	0.0710323 	0 -0.00406553 	0.070983 	0 -0.00453563 	0.0683608 	0 -0.00427934 	0.070765 	0 -0.0044784 	0.0722035 	0 -0.00492418 	0.0730176 	0 -0.00545172 	0.0718345 	0 -0.0060588 	0.0685259 	0 -0.00584797 	0.0715505 	0 -0.00588317 	0.0742012 	0 -0.00663406 	0.0753514 	0 -0.00740983 	0.0718193 	0 -0.00815068 	0.0672427 	0 -0.00805766 	0.0715043 	0 -0.00798807 	0.0759641 	0 -0.00867517 	0.0758371 	0 -0.00951548 	0.0694876 	0 -0.0102548 	0.062572 	0 -0.0104323 	0.0693696 	0 -0.0106687 	0.076539 	0 -0.00998307 	0.0718435 	0 -0.0103441 	0.06202 	0 -0.0106306 	0.0509776 	0 -0.0113279 	0.0631878 	0 -0.0105908 	0.0615943 	0 -0.00908682 	0.0528477 	0 -0.00758289 	0.044101 	0 -0.00626897 	0.027246 	0 -0.00687516 	0.0403095 	0 -0.00558638 	0.0327533 	0 -0.00429759 	0.0251971 	0 -0.00300881 	0.0176409 	0 0 	0 	0