# vtk DataFile Version 2.0
track0
ASCII
DATASET POLYDATA
POINTS 40312 float
0.05 8.57988e-20 2.57396e-18
0.05 0.00217391 -1.05592e-17
0.05 0.00217391 -1.05592e-17
0.05 0.00217391 -1.05592e-17
0.05 0.00217391 -1.05592e-17
0.05 0.00217391 -1.05592e-17
0.05 0.00217391 -1.38778e-17
0.0493333 0.00217521 -8.74301e-18
0.0486667 0.00217752 -6.80012e-18
0.048 0.00218138 -5.59598e-18
0.0473334 0.00218838 -2.25661e-18
0.0466667 0.00219796 -6.93889e-18
0.046 0.00220999 -7.35523e-18
0.0453333 0.00222143 -7.84093e-18
0.0446667 0.00223348 -6.89704e-18
0.0440001 0.00224852 -1.20835e-17
0.0433333 0.00226705 -2.08167e-17
0.0426667 0.00228944 -1.01308e-17
0.0419999 0.00230985 -8.53526e-18
0.0413332 0.00233051 -7.75196e-18
0.0406666 0.00235411 -6.69594e-18
0.04 0.00238169 -1.11022e-17
0.0393333 0.00241444 -1.80411e-18
0.0386665 0.00244403 -5.41209e-18
0.0379997 0.00247437 -8.23102e-18
0.0373331 0.0025077 -5.62801e-18
0.0366667 0.00254489 0
0.036 0.00258843 -1.01308e-17
0.0353331 0.00262789 -8.53229e-18
0.0346663 0.00266964 -7.88436e-18
0.0339997 0.00271457 -7.85079e-18
0.0333333 0.00276281 -6.93889e-18
0.0326667 0.0028182 -1.48492e-17
0.0319998 0.0028705 -1.37386e-17
0.0313331 0.00292622 -1.71929e-17
0.0306668 0.0029855 -1.78569e-17
0.03 0.00304855 -1.94289e-17
0.0294503 0.0031055 -1.85134e-17
0.0289005 0.00316217 -2.45368e-17
0.0283511 0.0032215 -2.51614e-17
0.0278019 0.00328358 -2.73356e-17
0.0273815 0.00333333 -2.597e-17
0.0272385 0.00335084 -2.35516e-17
0.0270956 0.00336856 -1.69697e-17
0.0269527 0.00338648 -2.149e-17
0.0268098 0.00340461 -2.04592e-17
0.0266667 0.00342298 -2.75316e-17
0.026 0.0035115 -2.73105e-17
0.0253338 0.00360322 -2.70814e-17
0.0246682 0.00369975 -3.03255e-17
0.0240034 0.00380129 -2.19326e-17
0.0233333 0.003909 -2.17754e-17
0.0226667 0.00403517 -2.54549e-17
0.0219994 0.0041581 -2.42719e-17
0.0213331 0.00428635 -2.51167e-17
0.0206681 0.00442071 -2.2558e-17
0.02 0.00457225 -1.86243e-17
0.0193333 0.00475104 -1.60739e-17
0.0186665 0.00492918 -1.88948e-17
0.0179995 0.00510662 -2.08973e-17
0.0173359 0.00529666 -2.11165e-17
0.0166667 0.00551783 -1.80411e-17
0.0160599 0.0057476 -1.93009e-17
0.0154539 0.00597959 -2.69687e-17
0.0148522 0.00622247 -2.76646e-17
0.0142576 0.00648213 -1.78073e-17
0.0138673 0.00666667 -2.58693e-17
0.0137605 0.00671992 -1.73648e-17
0.0136541 0.0067739 -1.85753e-17
0.013548 0.00682862 -2.11742e-17
0.0134424 0.00688408 -1.80341e-17
0.0133333 0.00694256 -2.54395e-17
0.0126667 0.0073092 -2.11928e-17
0.0120124 0.00769752 -1.83701e-17
0.0113734 0.00811056 -1.97784e-17
0.0107518 0.00854918 -1.3859e-17
0.01 0.0091402 -1.249e-17
0.00980837 0.00931216 -1.06235e-17
0.00961842 0.00948597 -3.21014e-18
0.00943017 0.00966164 -6.97454e-18
0.00924369 0.00983917 -6.74649e-18
0.00907812 0.01 -1.249e-17
0.00859583 0.010477 -1.54617e-17
0.00813675 0.0109764 -2.47772e-17
0.00770236 0.0114975 -2.94152e-17
0.00729166 0.0120374 -3.11485e-17
0.00666667 0.012931 -2.91434e-17
0.00661739 0.0130115 -2.78376e-17
0.00656841 0.0130921 -2.51437e-17
0.00651972 0.013173 -3.07758e-17
0.00647134 0.013254 -2.32669e-17
0.00642407 0.0133333 -2.498e-17
0.00602805 0.014 -2.47025e-17
0.00566823 0.0146869 -2.75811e-17
0.00533896 0.0153889 -2.34394e-17
0.00503649 0.0161029 -2.76644e-17
0.0048001 0.0166667 -3.46734e-17
0.0045226 0.0173333 -3.97034e-17
0.0042844 0.018015 -4.148e-17
0.0040724 0.0187053 -4.22278e-17
0.00387114 0.0193988 -4.67286e-17
0.00370624 0.02 -4.25839e-17
0.00363166 0.0202682 -4.87776e-17
0.00356316 0.020538 -4.90999e-17
0.00349663 0.0208083 -4.88858e-17
0.00343164 0.021079 -4.69391e-17
0.00333333 0.0214987 -4.68944e-17
0.00325063 0.0218657 -4.45466e-17
0.00317037 0.0222331 -4.32925e-17
0.00309246 0.0226011 -5.45245e-17
0.00301683 0.0229695 -4.4936e-17
0.00294439 0.0233333 -3.88578e-17
0.00280738 0.024 -2.88658e-17
0.00268546 0.0246696 -2.51237e-17
0.00257117 0.0253405 -2.09945e-17
0.00246391 0.0260126 -1.53557e-17
0.00236119 0.0266667 -1.249e-17
0.00224537 0.0273333 -1.22125e-17
0.00214825 0.028003 -9.84578e-18
0.00206632 0.0286747 -4.19166e-18
0.00199004 0.029347 -2.27325e-18
0.00190507 0.03 -6.93889e-18
0.00180566 0.0306667 -9.4369e-18
0.00172617 0.031336 -8.12294e-18
0.00166558 0.0320073 -8.80204e-18
0.00160709 0.0326788 -1.15976e-17
0.00153648 0.0333333 -8.76059e-18
0.00145031 0.034 -1.01547e-17
0.00138543 0.0346691 -4.47571e-18
0.00134018 0.0353398 -2.75344e-18
0.0012959 0.0360105 -1.71017e-18
0.00123762 0.0366667 -3.10189e-18
0.00116246 0.0373333 -2.97671e-18
0.00111017 0.0380022 2.28347e-18
0.00107213 0.038672 3.59935e-18
0.00103409 0.0393418 5.83017e-18
0.00098684 0.04 8.76492e-18
0.000921085 0.0406667 1.23439e-17
0.000880152 0.0413353 1.39419e-17
0.00084717 0.0420044 1.29684e-17
0.000814189 0.0426735 1.82982e-17
0.000777166 0.0433333 1.81347e-17
0.000719598 0.044 1.82305e-17
0.000689194 0.0446685 1.70351e-17
0.000660607 0.045337 1.7133e-17
0.00063202 0.0460055 1.42849e-17
0.00060375 0.0466667 1.98112e-17
0.00055337 0.0473333 1.36328e-17
0.000528623 0.0480014 1.45264e-17
0.000503875 0.0486696 1.33179e-17
0.000479128 0.0493377 1.28991e-17
0.000454594 0.05 1.03452e-17
0.000410506 0.0506667 5.11035e-18
0.000389077 0.0513344 5.73769e-18
0.000367648 0.0520022 1.3319e-17
0.000346218 0.05267 1.42886e-17
0.000324932 0.0533333 1.47244e-17
0.000286236 0.054 1.83277e-17
0.000267568 0.0546675 1.14907e-17
0.000248901 0.0553351 1.54015e-17
0.000230233 0.0560026 5.26926e-18
0.000211662 0.0566667 9.36196e-18
0.000177345 0.0573333 1.12232e-17
0.000160768 0.0580007 1.30561e-17
0.000144191 0.058668 1.01979e-17
0.000127614 0.0593354 1.22091e-17
0.000111104 0.06 1.09172e-17
8.88835e-05 0.0604749 2.31943e-17
7.79289e-05 0.0609502 1.74121e-17
6.69743e-05 0.0614255 2.03035e-17
5.60198e-05 0.0619008 1.60899e-17
2.30035e-05 0.0633333 2.21662e-17
1.84028e-05 0.0634365 1.64475e-17
1.60128e-05 0.0635397 1.22866e-17
1.36228e-05 0.0636429 1.47175e-17
1.12328e-05 0.0637461 1.1424e-17
0 0.0642312 9.82185e-18
0.05 0.00434783 5.94331e-18
0.0493333 0.00434901 5.24746e-18
0.0486667 0.00435321 5.24046e-18
0.048 0.00435976 7.49393e-18
0.0473334 0.00436798 1.06741e-17
0.0466667 0.00437912 7.97287e-18
0.046 0.00439428 5.86596e-18
0.0453334 0.00441106 1.13891e-17
0.0446668 0.00442946 1.13112e-17
0.0440002 0.00444948 6.57037e-18
0.0433333 0.00447341 2.73718e-18
0.0426667 0.00450256 6.7478e-18
0.042 0.00453214 1.14551e-17
0.0413334 0.00456239 1.06164e-17
0.0406669 0.00459427 3.85437e-18
0.04 0.00463177 2.34795e-18
0.0393333 0.00467578 -8.4784e-19
0.0386666 0.00471922 -5.08352e-18
0.0379999 0.00476209 -3.74403e-18
0.0373333 0.00480725 6.50515e-19
0.0366667 0.00485999 5.56234e-18
0.036 0.00492063 2.35436e-18
0.0353332 0.00497997 8.50632e-19
0.0346663 0.00503801 -1.17795e-18
0.0339998 0.00509975 2.13895e-18
0.0333333 0.00517047 0
0.0326667 0.00525063 -5.27356e-18
0.0319998 0.00532908 -1.38271e-19
0.0313327 0.00540579 -5.38364e-18
0.0306664 0.00548853 -8.09941e-18
0.03 0.00558139 -6.93889e-18
0.0293333 0.0056854 -9.4369e-18
0.0286664 0.00578765 -1.30447e-17
0.028 0.0058933 -1.43331e-17
0.0273348 0.00600626 -1.702e-17
0.0266667 0.00612771 -1.249e-17
0.0261311 0.0062355 -1.29859e-17
0.0255955 0.0063434 -2.18084e-17
0.0250611 0.00645668 -2.39541e-17
0.0245278 0.00657559 -1.48158e-17
0.0241396 0.00666667 -2.28533e-17
0.0239783 0.00670592 -2.25847e-17
0.0238172 0.00674577 -2.43981e-17
0.0236563 0.00678621 -2.27423e-17
0.0234955 0.00682726 -2.10867e-17
0.0233333 0.00686931 -2.11542e-17
0.0226667 0.00704715 -2.42259e-17
0.0220025 0.00723413 -2.5925e-17
0.0213415 0.00743192 -2.82209e-17
0.020684 0.00764103 -3.66394e-17
0.02 0.00787534 -3.79202e-17
0.0193333 0.00812898 -3.55519e-17
0.0186708 0.00839315 -3.34386e-17
0.0180128 0.00866847 -3.27512e-17
0.0173622 0.00896094 -2.81069e-17
0.0166667 0.00930227 -2.35922e-17
0.0164076 0.00944182 -2.95748e-17
0.0161497 0.00958335 -2.82824e-17
0.0158929 0.00972712 -2.16098e-17
0.0156379 0.00987385 -2.1879e-17
0.0154244 0.01 -3.19189e-17
0.0150062 0.0102529 -2.54012e-17
0.0145941 0.0105157 -2.29163e-17
0.0141886 0.0107884 -2.64043e-17
0.0137899 0.0110711 -2.53444e-17
0.0133333 0.0114151 -2.45611e-17
0.0128592 0.0117988 -1.88307e-17
0.0123953 0.0121947 -3.00116e-17
0.0119421 0.0126029 -2.82143e-17
0.0115005 0.0130236 -2.43848e-17
0.0111931 0.0133333 -2.92684e-17
0.0109545 0.0135835 -2.34147e-17
0.0107213 0.0138388 -2.45548e-17
0.0104938 0.014099 -3.04252e-17
0.0102716 0.014364 -3.27366e-17
0.01 0.0147016 -3.44888e-17
0.00969968 0.0150946 -3.2419e-17
0.00940841 0.0154944 -3.15163e-17
0.00912615 0.0159006 -2.69942e-17
0.00885244 0.0163126 -2.51506e-17
0.0086252 0.0166667 -2.498e-17
0.0082335 0.0172951 -2.25406e-17
0.00786987 0.0179402 -2.3421e-17
0.00753305 0.0185997 -2.57024e-17
0.00721498 0.0192684 -1.84808e-17
0.00689064 0.02 -1.74816e-17
0.00684585 0.0201077 -1.62058e-17
0.00680179 0.0202158 -1.93813e-17
0.00675833 0.0203241 -2.19909e-17
0.00671534 0.0204325 -2.46877e-17
0.00666667 0.020557 -1.94254e-17
0.00645258 0.0211122 -2.6365e-17
0.00624957 0.0216717 -2.42868e-17
0.00605702 0.0222348 -3.01586e-17
0.0058743 0.0228011 -2.57421e-17
0.00570845 0.0233333 -2.498e-17
0.00549931 0.024 -1.98452e-17
0.0053125 0.0246733 -1.95787e-17
0.00514694 0.0253521 -1.74185e-17
0.0049892 0.0260327 -2.25843e-17
0.00483841 0.0266667 -2.38224e-17
0.00467623 0.0273333 -2.26663e-17
0.00453493 0.0280047 -2.16302e-17
0.00441052 0.0286795 -2.31278e-17
0.00429026 0.029355 -2.44606e-17
0.00417413 0.03 -2.98497e-17
0.00404892 0.0306667 -2.47839e-17
0.00394283 0.0313366 -2.58507e-17
0.00384135 0.0320073 -2.1384e-17
0.00374346 0.0326786 -2.04201e-17
0.00365141 0.0333333 -3.24486e-17
0.0035878 0.0337761 -2.46664e-17
0.00352965 0.0342197 -1.96675e-17
0.00347297 0.0346634 -2.99364e-17
0.00341772 0.0351074 -2.27302e-17
0.00333333 0.0358032 -2.498e-17
0.00331322 0.0359759 -2.36257e-17
0.0032933 0.0361486 -2.08833e-17
0.00327358 0.0363213 -2.36918e-17
0.00325404 0.0364941 -2.23365e-17
0.00323471 0.0366667 -1.80411e-17
0.00315955 0.0373333 -1.98452e-17
0.00308838 0.0380004 -2.58134e-17
0.00302006 0.0386678 -2.13384e-17
0.00295448 0.0393355 -2.28354e-17
[...]
POINT_DATA 40312
 FIELD attributes 1
U 3 40312 float
-6.28594e-19 	-1.56962e-21 	0
-0.014826 	2.89332e-05 	0 -0.014826 	2.89332e-05 	0 -0.014826 	2.89332e-05 	0 -0.014826 	2.89332e-05 	0 -0.014826 	2.89332e-05 	0 -0.014826 	2.89332e-05 	0 -0.015156 	5.24996e-05 	0 -0.0153902 	8.89754e-05 	-4.6117e-25 -0.01535 	0.000161285 	-2.20305e-24 -0.0150992 	0.00021697 	-3.95305e-24 -0.0147782 	0.000266566 	-5.70996e-24 -0.0150997 	0.000259274 	2.23056e-22 -0.0152801 	0.000276033 	3.75645e-22 -0.0151813 	0.000342673 	3.7092e-22 -0.01495 	0.000415487 	2.21666e-22 -0.0146569 	0.000492133 	-7.76379e-24 -0.0149565 	0.00045782 	6.65742e-23 -0.0150472 	0.000466323 	1.08926e-22 -0.0149007 	0.000527556 	1.123e-22 -0.0146988 	0.0006082 	8.04622e-23 -0.0144443 	0.000709436 	1.17693e-23 -0.0147115 	0.000652844 	8.63675e-24 -0.0146835 	0.000668113 	-5.53748e-24 -0.0145028 	0.000725073 	-2.59865e-23 -0.014322 	0.000799248 	-4.57039e-23 -0.014114 	0.000921971 	-6.31693e-23 -0.0143411 	0.00084843 	-4.77023e-23 -0.0141751 	0.000887491 	-5.04264e-23 -0.0139743 	0.000942005 	-5.55525e-23 -0.0137895 	0.000998242 	-6.08497e-23 -0.0136335 	0.00113271 	-8.04861e-23 -0.0137335 	0.00107704 	-1.58994e-22 -0.0135113 	0.00112928 	-1.28928e-22 -0.0133044 	0.00118357 	-9.83166e-23 -0.0131133 	0.00123999 	-6.71387e-23 -0.0129776 	0.00134463 	9.88741e-24 -0.0129342 	0.00133313 	-4.31387e-23 -0.012754 	0.0013771 	-3.07223e-23 -0.0125841 	0.00142277 	-1.76836e-23 -0.0124249 	0.00147019 	-4.00054e-24 -0.0123114 	0.00150791 	6.99196e-24 -0.0122755 	0.00152141 	1.09421e-23 -0.0122404 	0.00153504 	1.49411e-23 -0.0122061 	0.0015488 	1.89892e-23 -0.0121726 	0.00156271 	2.30867e-23 -0.0121033 	0.00160698 	8.50729e-24 -0.0118715 	0.00163433 	6.35979e-24 -0.0116733 	0.00169308 	7.26296e-24 -0.0114907 	0.00175502 	8.1372e-24 -0.0113244 	0.00182029 	8.98123e-24 -0.0109737 	0.00207685 	4.86291e-23 -0.0106356 	0.00195941 	3.60233e-22 -0.0104522 	0.00201187 	4.41721e-22 -0.010294 	0.00207978 	5.10037e-22 -0.0100359 	0.00227647 	4.15671e-22 -0.00970726 	0.00260335 	1.71843e-22 -0.00941068 	0.00251402 	4.2541e-22 -0.00911251 	0.00242402 	6.78961e-22 -0.00880877 	0.00252278 	6.92671e-22 -0.00854492 	0.00282389 	4.70165e-22 -0.00832671 	0.0031529 	2.48808e-22 -0.00810976 	0.00310492 	4.44928e-22 -0.00783396 	0.00316228 	4.79133e-22 -0.00754159 	0.00329325 	4.1505e-22 -0.00728216 	0.00344338 	3.47707e-22 -0.00713313 	0.00355679 	3.00626e-22 -0.00708742 	0.0035948 	2.87582e-22 -0.00704308 	0.0036337 	2.74403e-22 -0.00700014 	0.00367351 	2.61088e-22 -0.00694415 	0.00372461 	2.596e-22 -0.00688064 	0.00378408 	2.63965e-22 -0.00648886 	0.00385124 	1.75628e-22 -0.00622765 	0.00402572 	9.52455e-23 -0.00599574 	0.0042303 	1.86851e-23 -0.00573105 	0.00450559 	2.53136e-23 -0.00545715 	0.00489698 	3.11344e-23 -0.00539655 	0.00493815 	1.79683e-23 -0.00533904 	0.00498222 	4.79596e-24 -0.00528358 	0.00502995 	2.91315e-23 -0.0052307 	0.00508109 	7.49457e-23 -0.00518619 	0.0051296 	1.16026e-22 -0.00488735 	0.00531664 	1.16688e-22 -0.00462054 	0.00554214 	1.11613e-22 -0.00439278 	0.00577464 	1.00758e-22 -0.00420232 	0.00600876 	8.45999e-23 -0.00394144 	0.00643554 	5.09491e-23 -0.00392529 	0.00646283 	8.42411e-23 -0.00390951 	0.00649061 	1.17247e-22 -0.00389409 	0.00651887 	1.49969e-22 -0.00389425 	0.00653957 	8.02715e-23 -0.00389626 	0.00655911 	3.71552e-25 -0.0035243 	0.00672773 	-6.47529e-22 -0.00331868 	0.00707577 	-1.07135e-21 -0.00316915 	0.00748086 	-1.43958e-21 -0.00325674 	0.00776681 	-1.1402e-21 -0.00332859 	0.00799673 	-9.03462e-22 -0.00291629 	0.00834597 	-5.94612e-22 -0.0026569 	0.00865094 	-3.4709e-22 -0.00256726 	0.00884635 	-1.86525e-22 -0.00248688 	0.00906643 	-2.12746e-23 -0.00261915 	0.00941866 	1.46414e-23 -0.00245296 	0.00966243 	1.18279e-24 -0.00240481 	0.00976999 	0 -0.00236942 	0.00986878 	0 -0.0023356 	0.00997247 	0 -0.0022856 	0.0101404 	0 -0.00224607 	0.0102828 	0 -0.00220897 	0.0104332 	0 -0.00217423 	0.0105915 	0 -0.00214176 	0.0107572 	0 -0.00220068 	0.010708 	0 -0.0019679 	0.010808 	0 -0.00189788 	0.0111414 	0 -0.00183654 	0.0115075 	0 -0.00184233 	0.0117301 	0 -0.00200004 	0.0115124 	0 -0.00169069 	0.0116582 	0 -0.00145709 	0.0119457 	0 -0.00141213 	0.0124465 	0 -0.001593 	0.0122417 	0 -0.00177648 	0.0119144 	0 -0.00144729 	0.0121853 	0 -0.00113572 	0.0125842 	0 -0.00110629 	0.0126999 	0 -0.00133241 	0.0123519 	0 -0.0015392 	0.0119075 	0 -0.00119449 	0.0123188 	0 -0.00087019 	0.0128991 	0 -0.000828968 	0.0125552 	0 -0.00107655 	0.0121212 	0 -0.001303 	0.011557 	0 -0.000947419 	0.0121206 	0 -0.000708463 	0.0124742 	0 -0.000684187 	0.0120468 	0 -0.000827532 	0.0115271 	0 -0.00106981 	0.0108463 	0 -0.000708291 	0.01157 	0 -0.000570974 	0.0115833 	0 -0.000549578 	0.0111493 	0 -0.000597046 	0.0106409 	0 -0.000850893 	0.00985366 	0 -0.000488535 	0.0107408 	0 -0.000445132 	0.01041 	0 -0.000426668 	0.00997819 	0 -0.000408205 	0.0095464 	0 -0.000655742 	0.00867729 	0 -0.000349121 	0.00942522 	0 -0.000333507 	0.00900371 	0 -0.000317894 	0.0085822 	0 -0.000302281 	0.00816069 	0 -0.000482322 	0.0072934 	0 -0.000249152 	0.00776403 	0 -0.000236146 	0.00735873 	0 -0.000223139 	0.00695343 	0 -0.000210133 	0.00654813 	0 -0.000333291 	0.00574212 	2.8408e-37 -0.000165913 	0.00593278 	0 -0.000155093 	0.00554586 	0 -0.000144272 	0.00515893 	0 -0.000133452 	0.00477201 	0 -0.000209682 	0.00407348 	2.87039e-40 -9.89869e-05 	0.00398494 	0 -8.97343e-05 	0.00361246 	0 -8.04817e-05 	0.00323997 	0 -7.12291e-05 	0.00286749 	0 -0.000107971 	0.00230758 	-9.69853e-38 -4.95068e-05 	0.00214802 	0 -4.34053e-05 	0.00188328 	0 -3.73037e-05 	0.00161855 	0 -3.12022e-05 	0.00135381 	0 -2.28571e-05 	0.000512384 	0 -1.10298e-05 	0.000476303 	0 -9.59736e-06 	0.000414445 	0 -8.1649e-06 	0.000352587 	0 -6.73244e-06 	0.000290729 	0 0 	0 	0
-0.0288238 	5.11158e-05 	0 -0.0290395 	0.000182857 	0 -0.0291451 	0.000286521 	-8.14289e-25 -0.0291229 	0.000359128 	-2.52908e-24 -0.0289375 	0.000483281 	-2.08579e-23 -0.0286244 	0.000651032 	-5.31834e-23 -0.0287536 	0.000723973 	-2.62903e-22 -0.0288114 	0.000795186 	-3.92742e-22 -0.0287543 	0.000863539 	-3.99831e-22 -0.0284784 	0.00102177 	-2.7306e-22 -0.0281037 	0.00122912 	-7.53728e-23 -0.0281479 	0.00124873 	-1.11584e-22 -0.0281655 	0.00127805 	-1.39716e-22 -0.0280789 	0.00134318 	-1.37657e-22 -0.0276906 	0.00155711 	-7.81286e-23 -0.0272778 	0.00180066 	-8.54655e-24 -0.0272446 	0.00177527 	2.76267e-23 -0.0272084 	0.00174953 	6.3813e-23 -0.0270566 	0.00183309 	4.73321e-23 -0.0265918 	0.00210356 	1.0735e-24 -0.0261651 	0.00237987 	-4.5001e-23 -0.0260667 	0.00232009 	-1.90035e-22 -0.0259616 	0.00225931 	-3.35126e-22 -0.0256635 	0.0023769 	-3.256e-22 -0.0252052 	0.00267481 	-1.62017e-22 -0.0247879 	0.00298055 	2.0152e-24 -0.0246387 	0.00289862 	1.42276e-22 -0.0244816 	0.00281514 	2.82486e-22 -0.0239769 	0.00297724 	2.94329e-22 -0.0235428 	0.0032808 	2.16945e-22 -0.0231557 	0.00361267 	1.27761e-22 -0.0229715 	0.00352167 	2.55853e-22 -0.0225943 	0.00358211 	2.88908e-22 -0.0221014 	0.00375293 	2.55699e-22 -0.0216362 	0.00393311 	2.21374e-22 -0.0212953 	0.00428585 	8.56774e-23 -0.0210958 	0.00424997 	7.8603e-23 -0.0207096 	0.00438951 	1.0789e-22 -0.0203413 	0.00453613 	1.37654e-22 -0.0199918 	0.00469017 	1.67916e-22 -0.0197511 	0.00480824 	1.9038e-22 -0.0196556 	0.00486144 	1.92312e-22 -0.0195621 	0.00491546 	1.94183e-22 -0.0194706 	0.00497029 	1.9599e-22 -0.0193812 	0.00502596 	1.97734e-22 -0.0192279 	0.00512929 	2.05574e-22 -0.0187372 	0.00527483 	1.86157e-22 -0.0183266 	0.00548376 	1.90359e-22 -0.0179467 	0.00570751 	1.92297e-22 -0.017523 	0.00600318 	2.10927e-22 -0.0169617 	0.00645308 	2.67548e-22 -0.0164869 	0.00657357 	1.51659e-22 -0.0160416 	0.00671202 	3.49597e-23 -0.0154975 	0.00696705 	0 -0.0150547 	0.00738819 	3.79209e-23 -0.0146345 	0.00788342 	7.70188e-23 -0.0144953 	0.00795267 	3.30201e-23 -0.0143477 	0.00803488 	0 -0.0141657 	0.00814961 	0 -0.0139909 	0.0082695 	0 -0.0138499 	0.00837493 	0 -0.0135293 	0.00862719 	0 -0.0132317 	0.00889834 	0 -0.0129578 	0.00918869 	0 -0.0126247 	0.00951188 	0 -0.0122571 	0.00991778 	0 -0.0119174 	0.0101731 	0 -0.0116099 	0.0104577 	0 -0.0112888 	0.010752 	0 -0.010988 	0.0110707 	0 -0.0107979 	0.0113206 	0 -0.0105797 	0.0115854 	0 -0.0103753 	0.0118645 	0 -0.0101686 	0.0121291 	-1.65456e-23 -0.00996273 	0.0123846 	-4.61774e-23 -0.00972118 	0.0127214 	-8.32492e-23 -0.00947974 	0.0130108 	-8.88883e-23 -0.00925953 	0.0133243 	-9.54891e-23 -0.00906512 	0.0136445 	-1.23366e-22 -0.00891665 	0.0138954 	-2.61197e-22 -0.00880301 	0.0141233 	-3.7864e-22 -0.00829477 	0.0147156 	-5.88576e-22 -0.00784609 	0.0153626 	-7.6523e-22 -0.00752776 	0.0158267 	-4.95481e-22 -0.00724381 	0.016339 	-2.30268e-22 -0.00706881 	0.0170016 	1.07166e-22 -0.00699712 	0.0171585 	2.02987e-22 -0.00693753 	0.0172849 	2.32709e-22 -0.00688848 	0.0173843 	2.04165e-22 -0.00684042 	0.0174852 	1.75967e-22 -0.00678653 	0.0176025 	1.44071e-22 -0.00655923 	0.0180741 	1.35343e-22 -0.00635458 	0.0185838 	1.27844e-22 -0.00617128 	0.0191291 	1.21502e-22 -0.00610102 	0.0195779 	1.26457e-22 -0.0062085 	0.0197899 	1.4952e-22 -0.00566081 	0.0204018 	9.43854e-23 -0.00514589 	0.0210986 	4.02412e-23 -0.00506354 	0.0218502 	1.82737e-22 -0.00528025 	0.0221982 	3.74233e-22 -0.00547522 	0.0225062 	5.51156e-22 -0.00491487 	0.0233537 	2.47633e-22 -0.00445724 	0.0241754 	0 -0.00435759 	0.0244761 	0 -0.00447142 	0.0248353 	3.01873e-25 -0.00473271 	0.0251987 	8.13778e-25 -0.00416486 	0.0263007 	4.73478e-26 -0.00403821 	0.0266892 	0 -0.00394526 	0.0270526 	0 -0.00385729 	0.0274394 	0 -0.00399809 	0.0278293 	-1.28673e-22 -0.00373325 	0.0284803 	0 -0.00367104 	0.0287405 	0 -0.00361097 	0.0290123 	0 -0.00355299 	0.0292952 	0 -0.00346535 	0.0297555 	0 -0.00344519 	0.0298745 	0 -0.00342532 	0.0299951 	0 -0.00340573 	0.0301172 	0 -0.00338641 	0.0302408 	0 -0.00340561 	0.030206 	0 -0.00326981 	0.0306487 	0 -0.00318399 	0.0311042 	0 -0.00310245 	0.0315861 	0 -0.00302502 	0.0320934 	0 -0.00313499 	0.0317842 	0 -0.00284459 	0.0324311 	0 -0.00276223 	0.0329424 	0 -0.00268377 	0.033481 	0 -0.00261397 	0.0340212 	0 -0.00285436 	0.0330545 	0 -0.002492 	0.0339417 	0 -0.00235935 	0.0345722 	0 -0.00228357 	0.0351585 	0 -0.0023269 	0.0351457 	0 -0.00257147 	0.0340277 	0 -0.00221327 	0.035077 	0 -0.00198238 	0.0359743 	0 -0.00190983 	0.0365977 	0 -0.0020522 	0.0360087 	0 -0.00229771 	0.0347447 	0 -0.00194823 	0.0359504 	0 -0.00164291 	0.0371782 	7.50625e-38 -0.00157572 	0.0378282 	6.3283e-37 -0.00180196 	0.0366647 	1.19214e-36 -0.00204675 	0.0352626 	1.74455e-36 -0.00170967 	0.0366155 	1.12787e-36 -0.00138015 	0.038103 	5.17439e-37 -0.00133605 	0.0385669 	7.71839e-40 -0.00158745 	0.0371331 	1.64555e-39 -0.00183256 	0.035601 	2.50864e-39 -0.00151024 	0.0370905 	1.55802e-39 -0.00119487 	0.0387187 	6.1666e-40 -0.00116679 	0.038982 	-3.80032e-37 -0.00142339 	0.0374326 	-9.45055e-37 -0.00167396 	0.0357761 	-1.50363e-36 -0.0013671 	0.037393 	-8.94455e-37 -0.00106674 	0.0391523 	-2.90975e-37 -0.00105642 	0.039247 	0 -0.00132989 	0.0375844 	0 -0.00159705 	0.0358007 	0 -0.00130464 	0.0375436 	0 -0.00101866 	0.0394336 	0 -0.00102238 	0.0393634 	0 -0.00133321 	0.0375781 	0 -0.00163639 	0.0356463 	0 -0.0013565 	0.0375312 	0 -0.00108361 	0.0395719 	0 -0.00108549 	0.039288 	0 -0.0014658 	0.0373448 	0 -0.0018349 	0.0352087 	0 -0.00156717 	0.0372886 	0 -0.00131416 	0.0394623 	0 -0.00129197 	0.038796 	0 -0.00175517 	0.0366858 	0 -0.00223062 	0.0342224 	0 -0.00198233 	0.0366275 	0 -0.00179147 	0.0382986 	0 -0.00174326 	0.037268 	0 -0.00217338 	0.0350761 	0 -0.00279908 	0.0320425 	0 -0.0025979 	0.035062 	0 -0.00244705 	0.035587 	0 -0.00232864 	0.0338651 	0 -0.00250571 	0.0314952 	0 -0.00330573 	0.0274608 	0 -0.00322379 	0.0317111 	0 -0.0029406 	0.0292792 	0 -0.00263978 	0.0262839 	0 -0.00233896 	0.0232887 	0 -0.00295013 	0.0180556 	0 -0.0028489 	0.0205089 	0 -0.00224119 	0.0161341 	0 -0.00163349 	0.0117593 	0 -0.00102578 	0.0073845 	0 0 	0 	0
-0.041875 	6.55835e-05 	0 -0.041843 	0.000270347 	-2.36155e-23 -0.0417605 	0.000495827 	-5.39246e-23 -0.0416979 	0.000721823 	-8.43951e-23 -0.0416555 	0.000948332 	-1.15027e-22 -0.0415901 	0.00116606 	-1.46108e-22 -0.0414445 	0.00135545 	-1.82282e-22 -0.0412623 	0.00156706 	-1.86253e-22 -0.0410993 	0.00178017 	-1.8932e-22 -0.0409556 	0.00199478 	-1.91475e-22 -0.0409162 	0.00206326 	-1.91865e-22 -0.0409014 	0.00209312 	-1.92693e-22 -0.0408869 	0.00212301 	-1.93514e-22 -0.0408728 	0.00215293 	-1.94327e-22 -0.0408591 	0.00218288 	-1.95134e-22 -0.0408351 	0.00221803 	-1.97003e-22 -0.0405647 	0.00241896 	-1.63858e-22 -0.040309 	0.00262132 	-1.308e-22 -0.0400729 	0.00282628 	-9.74883e-23 -0.039857 	0.00303387 	-6.39181e-23 -0.039549 	0.00330254 	-3.58894e-23 -0.0392434 	0.00349205 	-4.76164e-23 -0.0389285 	0.00368917 	-4.00067e-23 -0.0386333 	0.0038899 	-3.25224e-23 -0.0383586 	0.00409431 	-2.51665e-23 -0.0378454 	0.00444566 	2.99884e-23 -0.0374943 	0.00459611 	1.55461e-22 -0.0371427 	0.00479458 	1.89953e-22 -0.0368118 	0.0049978 	2.25364e-22 -0.0364021 	0.00526475 	2.11452e-22 -0.0357767 	0.0056823 	7.73404e-23 -0.0353696 	0.00581088 	4.73023e-23 -0.0349853 	0.00596164 	2.67578e-23 -0.0346421 	0.00617542 	3.79342e-23 -0.0340031 	0.00659623 	6.77139e-23 -0.0333913 	0.00704122 	9.75855e-23 -0.0329599 	0.00716857 	5.29724e-23 -0.0325457 	0.00730249 	8.17609e-24 -0.031901 	0.00761019 	0 -0.0313025 	0.00806201 	1.51501e-23 -0.0307367 	0.00854239 	3.03067e-23 -0.0303128 	0.00868732 	4.47865e-24 -0.029681 	0.00900289 	0 -0.0290372 	0.00937083 	0 -0.0284346 	0.00976004 	0 -0.0279106 	0.0101453 	0 -0.0278998 	0.0101549 	0 -0.0278892 	0.0101646 	0 -0.0278785 	0.0101742 	0 -0.0278659 	0.0101849 	0 -0.0278495 	0.0101976 	0 -0.0272043 	0.0105816 	0 -0.026606 	0.0109962 	0 -0.0260513 	0.0114382 	0 -0.0254429 	0.0119561 	0 -0.0246823 	0.0126308 	0 -0.0240622 	0.0130143 	0 -0.0234709 	0.0134402 	0 -0.0227483 	0.0139726 	0 -0.0220908 	0.0145518 	0 -0.0214312 	0.0152527 	0 -0.0214273 	0.0152579 	0 -0.0214234 	0.0152632 	0 -0.0214194 	0.0152685 	0 -0.0214141 	0.0152739 	0 -0.0214088 	0.0152793 	0 -0.0206612 	0.0158882 	0 -0.0199844 	0.0165618 	0 -0.0193593 	0.0172922 	2.70044e-25 -0.0186677 	0.0180398 	2.75509e-24 -0.0178556 	0.0191098 	6.0337e-24 -0.01777 	0.0192245 	6.04852e-24 -0.0176862 	0.0193409 	6.06569e-24 -0.0175993 	0.0194503 	9.58031e-25 -0.0175072 	0.0195489 	-1.13797e-23 -0.0174211 	0.0196443 	-2.31152e-23 -0.0166572 	0.0204646 	-1.02345e-23 -0.0159713 	0.0213736 	6.17904e-24 -0.015332 	0.0222164 	-3.71985e-23 -0.0147862 	0.0230744 	-1.32065e-22 -0.0144175 	0.0239027 	-2.35132e-22 -0.014319 	0.0241077 	-3.09253e-22 -0.0142223 	0.0243088 	-3.66657e-22 -0.0141252 	0.0244649 	-2.96288e-22 -0.01403 	0.0246232 	-2.26424e-22 -0.0139263 	0.0248015 	-1.49325e-22 -0.0134998 	0.0254901 	1.76478e-22 -0.0131127 	0.0262281 	4.91962e-22 -0.0127636 	0.0270129 	7.97427e-22 -0.0125351 	0.027578 	5.58937e-22 -0.0123759 	0.0280361 	2.05125e-22 -0.0117492 	0.0290713 	-8.60768e-23 -0.0111747 	0.0301874 	-3.81259e-22 -0.0108077 	0.0308721 	-9.08354e-24 -0.0105948 	0.0316175 	7.49975e-22 -0.0105059 	0.0323393 	1.68118e-21 -0.010159 	0.0331861 	2.34479e-21 -0.00992321 	0.0337579 	2.09806e-21 -0.00972643 	0.0342616 	1.59264e-21 -0.00953954 	0.0347839 	1.09797e-21 -0.00927932 	0.035576 	3.87464e-22 -0.00919977 	0.0358463 	2.90466e-22 -0.00912228 	0.0361207 	1.93693e-22 -0.0090468 	0.036399 	9.71426e-23 -0.00897604 	0.0366763 	2.81605e-24 -0.00903462 	0.0367241 	2.96894e-24 -0.00855703 	0.0376185 	-9.36434e-23 -0.00829631 	0.0385729 	-3.03648e-22 -0.00805677 	0.0395726 	-5.17558e-22 -0.00795431 	0.040377 	-7.34876e-22 -0.00818873 	0.0405277 	-9.47087e-22 -0.00753589 	0.0416501 	-6.22909e-22 -0.00697287 	0.0428481 	-1.33435e-22 -0.00679205 	0.04399 	1.25379e-21 -0.00708231 	0.0441517 	2.35003e-21 -0.00735612 	0.0442798 	3.40891e-21 -0.00669781 	0.0456249 	1.90952e-21 -0.00606568 	0.0470702 	4.3062e-22 -0.00591336 	0.0476982 	7.04699e-25 -0.00623383 	0.0478262 	3.57124e-24 -0.00653843 	0.0479153 	6.35935e-24 -0.00587928 	0.0494774 	2.66282e-24 -0.00538499 	0.0507745 	0 -0.00528217 	0.0511596 	0 -0.00542262 	0.051366 	-3.02613e-21 -0.00574813 	0.0513971 	-8.39453e-21 -0.00509335 	0.0531638 	-1.65531e-21 -0.00485716 	0.0539053 	0 -0.00475778 	0.0543169 	0 -0.00466347 	0.0547459 	-6.06934e-26 -0.00500079 	0.054699 	-1.0582e-23 -0.00444323 	0.0563838 	0 -0.00434599 	0.0567936 	0 -0.00425105 	0.0572238 	0 -0.00415838 	0.0576742 	0 -0.00430932 	0.0577804 	2.48476e-21 -0.00395559 	0.0589876 	3.22529e-37 -0.0038656 	0.0594091 	9.44795e-37 -0.00377757 	0.0598503 	1.56598e-36 -0.00369146 	0.060311 	2.18611e-36 -0.00369298 	0.0606287 	2.91426e-36 -0.00354955 	0.0612089 	3.17146e-36 -0.00350041 	0.0614717 	2.66027e-36 -0.00345189 	0.0617417 	2.15171e-36 -0.00340398 	0.0620187 	1.64577e-36 -0.0033413 	0.0623949 	9.78672e-37 -0.0033163 	0.0625526 	7.73376e-37 -0.00329147 	0.0627122 	5.68178e-37 -0.00326681 	0.0628737 	3.63079e-37 -0.00324231 	0.0630372 	1.58077e-37 -0.00324412 	0.0630235 	4.44098e-39 -0.00315914 	0.0635372 	-4.97369e-37 -0.00310003 	0.0639719 	-1.05138e-36 -0.00304209 	0.0644213 	-1.60616e-36 -0.00298531 	0.0648852 	-2.16169e-36 -0.00302506 	0.0646519 	-2.71726e-36 -0.0028994 	0.0654835 	-2.10808e-36 -0.00287238 	0.0659295 	-1.5003e-36 -0.00284602 	0.0663845 	-8.92907e-37 -0.00282032 	0.0668482 	-2.85904e-37 -0.0029475 	0.0660735 	0 -0.00278855 	0.067261 	0 -0.00281414 	0.067736 	0 -0.00283964 	0.0682098 	0 -0.00286506 	0.0686825 	0 -0.00309053 	0.0673224 	0 -0.00288859 	0.0689237 	0 -0.00299924 	0.0694622 	0 -0.00310846 	0.0699824 	0 -0.00321626 	0.0704847 	0 -0.00356474 	0.0684012 	0 -0.003297 	0.0704812 	0 -0.00352448 	0.0711934 	0 -0.0037665 	0.0718085 	0 -0.00404499 	0.071833 	0 -0.0045111 	0.0692096 	0 -0.0042628 	0.0716147 	0 -0.00448985 	0.072987 	0 -0.00493758 	0.0737809 	0 -0.00545859 	0.0727066 	0 -0.00606254 	0.0694011 	0 -0.00586136 	0.0724205 	0 -0.00594142 	0.0749795 	0 -0.00669539 	0.0761021 	0 -0.00746686 	0.0727377 	0 -0.00820589 	0.0681667 	0 -0.00812396 	0.072417 	0 -0.00806443 	0.0768581 	0 -0.0088165 	0.0768621 	0 -0.00965335 	0.0705097 	0 -0.0103913 	0.0635973 	0 -0.0105801 	0.0703788 	0 -0.0108259 	0.07752 	0 -0.0101747 	0.0732463 	0 -0.0105887 	0.0632144 	0 -0.0108701 	0.0521603 	0 -0.0115768 	0.0643526 	0 -0.0109158 	0.0634361 	0 -0.00941057 	0.0546886 	0 -0.00790534 	0.0459411 	0 -0.00659766 	0.0286598 	0 -0.00723868 	0.0424 	0 -0.00588115 	0.0344484 	0 -0.00452362 	0.0264967 	0 -0.00316608 	0.0185451 	0 0 	0 	0