# vtk DataFile Version 2.0
track0
ASCII
DATASET POLYDATA
POINTS 41143 float
0.05 8.57988e-20 2.57396e-18
0.05 0.00217391 -1.05592e-17
0.05 0.00217391 -1.05592e-17
0.05 0.00217391 -1.05592e-17
0.05 0.00217391 -1.05592e-17
0.05 0.00217391 -1.05592e-17
0.05 0.00217391 -1.38778e-17
0.0493333 0.00217502 -5.27356e-18
0.0486667 0.00217718 -6.80012e-18
0.048 0.00218093 -4.03549e-18
0.0473334 0.00218784 -2.9496e-18
0.0466667 0.00219732 -5.55112e-18
0.046 0.00220922 1.66533e-18
0.0453333 0.00222057 -1.24899e-18
0.0446667 0.00223255 -6.53571e-19
0.0440001 0.00224755 -7.92665e-18
0.0433333 0.00226603 -6.93889e-18
0.0426667 0.00228834 -1.11022e-18
0.0419999 0.00230871 2.56698e-18
0.0413332 0.00232934 6.48052e-18
0.0406666 0.00235293 9.38805e-19
0.04 0.00238051 -6.93889e-18
0.0393333 0.00241323 -8.74301e-18
0.0386665 0.00244282 -8.88154e-18
0.0379997 0.00247317 -1.23964e-17
0.0373331 0.00250651 -1.04734e-17
0.0366667 0.00254374 -4.16334e-18
0.036 0.00258731 -3.19189e-18
0.0353331 0.0026268 1.52909e-18
0.0346663 0.00266858 -9.55978e-19
0.0339997 0.00271356 -4.86841e-18
0.0333333 0.00276187 -6.93889e-18
0.0326667 0.00281731 -1.48492e-17
0.0319998 0.00286968 -1.89428e-17
0.0313331 0.00292546 -1.71942e-17
0.0306668 0.00298482 -1.8205e-17
0.03 0.00304796 -1.94289e-17
0.0294499 0.00310503 -2.54517e-17
0.0288998 0.00316182 -3.07805e-17
0.0283499 0.00322128 -2.93227e-17
0.0278004 0.0032835 -3.15017e-17
0.0273799 0.00333333 -3.08311e-17
0.0272373 0.00335083 -1.93913e-17
0.0270946 0.00336854 -2.9462e-17
0.026952 0.00338645 -2.56549e-17
0.0268095 0.00340457 -2.32355e-17
0.0266667 0.00342293 -2.6144e-17
0.026 0.00351158 -2.17592e-17
0.0253338 0.00360344 -1.87542e-17
0.0246682 0.00370012 -5.69248e-18
0.0240034 0.00380181 -1.15243e-17
0.0233333 0.00390969 -9.59822e-19
0.0226667 0.00403607 -6.02751e-18
0.0219994 0.00415921 -4.84481e-18
0.0213331 0.00428766 -8.11642e-18
0.0206681 0.00442224 -2.78599e-18
0.02 0.00457405 9.46026e-18
0.0193333 0.00475313 7.1505e-18
0.0186665 0.00493157 3.63274e-18
0.0179995 0.00510933 3.74256e-18
0.017336 0.00529971 1.78952e-18
0.0166667 0.00552125 -6.93889e-18
0.0160625 0.00575034 -2.654e-18
0.0154591 0.00598164 -5.79211e-18
0.0148599 0.00622369 -4.09471e-18
0.0142678 0.00648235 -6.03717e-18
0.0138779 0.00666667 -1.2009e-17
0.0137689 0.00672094 -7.66434e-18
0.0136604 0.00677597 -1.30347e-17
0.0135523 0.00683175 -4.52797e-18
0.0134446 0.00688831 -3.11209e-18
0.0133333 0.006948 3.69482e-18
0.0126667 0.00731504 -2.46754e-18
0.0120123 0.00770364 1.04864e-18
0.0113733 0.00811685 1.4558e-18
0.0107514 0.00855557 8.01447e-18
0.01 0.00914602 6.93889e-18
0.00980944 0.00931682 1.01905e-17
0.00962051 0.00948943 9.27463e-18
0.00943326 0.00966385 1.35984e-18
0.00924773 0.0098401 5.7536e-18
0.00908272 0.01 0
0.00859951 0.0104767 3.9663e-18
0.0081394 0.0109757 3.59604e-20
0.00770388 0.0114963 -4.78658e-18
0.00729199 0.0120358 -7.20668e-18
0.00666667 0.0129266 -6.93889e-18
0.00661664 0.013008 -2.85887e-18
0.00656692 0.0130895 -1.55389e-18
0.0065175 0.0131712 -2.48405e-19
0.00646839 0.0132531 3.30198e-19
0.00642042 0.0133333 0
0.00602283 0.014 5.82867e-18
0.00566161 0.0146871 2.60283e-18
0.00533107 0.0153894 3.94952e-18
0.00502727 0.0161037 -2.68575e-18
0.00479034 0.0166667 3.98656e-18
0.00451189 0.0173333 7.80125e-18
0.00427294 0.0180152 1.17184e-17
0.00406005 0.0187056 8.07676e-18
0.00385801 0.0193992 8.77849e-18
0.00369269 0.02 6.12379e-18
0.00362082 0.0202582 4.06637e-18
0.00355462 0.0205179 9.16761e-18
0.00349028 0.0207781 4.5039e-18
0.00342738 0.0210386 1.26753e-17
0.00333333 0.0214377 1.33897e-17
0.00324722 0.0218169 8.18327e-18
0.00316376 0.0221966 8.04428e-18
0.00308285 0.0225768 1.20729e-17
0.0030044 0.0229576 1.333e-17
0.00292942 0.0233333 1.11022e-17
0.00279191 0.024 1.76248e-17
0.0026699 0.0246697 1.75504e-17
0.00255562 0.0253407 1.58205e-17
0.00244845 0.0260129 1.72185e-17
0.00234557 0.0266667 1.80411e-17
0.00222949 0.0273333 2.73392e-17
0.00213228 0.028003 2.79713e-17
0.00205073 0.0286748 3.08238e-17
0.00197488 0.0293472 2.62015e-17
0.00188995 0.03 2.498e-17
0.0017905 0.0306667 3.15026e-17
0.00171113 0.031336 2.79593e-17
0.00165082 0.0320074 2.41332e-17
0.0015926 0.0326789 2.16851e-17
0.00152222 0.0333333 1.51477e-17
0.00143619 0.034 2.1038e-17
0.00137163 0.0346691 1.61319e-17
0.00132684 0.0353398 1.78222e-17
0.00128296 0.0360105 1.76973e-17
0.00122506 0.0366667 1.66949e-17
0.00115022 0.0373333 1.19623e-17
0.00109841 0.0380022 1.68747e-17
0.00106058 0.038672 1.19261e-17
0.00102275 0.0393418 1.10154e-17
0.000975999 0.04 1.29463e-17
0.000910728 0.0406667 1.93e-17
0.000870391 0.0413353 1.91623e-17
0.000837715 0.0420044 1.47032e-17
0.00080504 0.0426734 5.96627e-18
0.000768597 0.0433333 2.18948e-18
0.000711662 0.044 -4.91265e-19
0.00068192 0.0446684 3.86332e-18
0.000653724 0.0453369 8.11251e-18
0.000625529 0.0460054 1.08156e-17
0.00059764 0.0466667 1.70459e-17
0.00054803 0.0473333 1.0259e-17
0.000523751 0.0480014 1.45345e-17
0.000499472 0.0486695 8.80772e-18
0.000475193 0.0493375 5.96044e-18
0.000451118 0.05 1.45143e-17
0.000407927 0.0506667 2.28088e-17
0.000387037 0.0513344 2.23944e-17
0.000366146 0.0520021 1.92172e-17
0.000345255 0.0526699 2.12277e-17
0.000324499 0.0533333 1.61129e-17
0.000286818 0.054 1.00001e-17
0.000268754 0.0546675 1.01009e-17
0.00025069 0.055335 1.12383e-17
0.000232626 0.0560025 1.35961e-17
0.00021465 0.0566667 2.1847e-17
0.000181461 0.0573333 1.3645e-17
0.000165548 0.0580006 1.99869e-17
0.000149636 0.0586679 1.19328e-17
0.000133723 0.0593352 9.43372e-18
0.000117872 0.06 9.51816e-18
9.42974e-05 0.0605246 1.87577e-17
8.27659e-05 0.0610495 1.61817e-17
7.12344e-05 0.0615745 8.05456e-18
5.97029e-05 0.0620995 1.14223e-17
3.25998e-05 0.0633333 2.21502e-17
2.60799e-05 0.0634863 1.66912e-17
2.27122e-05 0.0636394 1.57375e-17
1.93445e-05 0.0637926 1.73859e-17
1.59768e-05 0.0639457 1.76465e-17
0 0.064672 1.19438e-17
0.05 0.00434783 5.94331e-18
0.0493333 0.00434873 5.94181e-18
0.0486667 0.0043527 4.54742e-18
0.048 0.00435906 3.3306e-18
0.0473334 0.0043671 8.59092e-18
0.0466667 0.00437804 7.28077e-18
0.046 0.004393 5.1742e-18
0.0453334 0.00440962 5.14651e-18
0.0446668 0.00442789 9.02869e-19
0.0440003 0.00444779 -3.85165e-20
0.0433333 0.00447158 -4.90777e-18
0.0426667 0.00450059 -5.06147e-18
0.042 0.00453005 -1.0488e-18
0.0413334 0.00456023 -1.38897e-19
0.0406669 0.00459204 -7.27022e-18
0.04 0.00462945 -1.22199e-17
0.0393333 0.00467336 -1.50685e-17
0.0386666 0.00471673 -1.72224e-17
0.0379999 0.00475956 -1.36362e-17
0.0373333 0.00480467 -1.32316e-17
0.0366667 0.00485736 -2.91153e-18
0.036 0.00491794 -1.02823e-17
0.0353332 0.00497725 -1.5125e-17
0.0346663 0.00503526 -1.69389e-17
0.0339998 0.00509698 -1.40124e-17
0.0333333 0.00516768 -1.249e-17
0.0326667 0.00524782 -1.22125e-17
0.0319998 0.00532626 -9.15884e-18
0.0313327 0.00540297 -1.16216e-17
0.0306664 0.0054857 -1.50336e-17
0.03 0.00557856 -1.80411e-17
0.0293333 0.00568258 -1.84575e-17
0.0286664 0.00578483 -1.89427e-17
0.028 0.00589047 -2.12767e-17
0.0273348 0.00600342 -1.70681e-17
0.0266667 0.00612487 -1.94289e-17
0.0261283 0.00623323 -2.1308e-17
0.02559 0.0063417 -1.97176e-17
0.0250528 0.00645561 -2.12083e-17
0.0245169 0.00657521 -1.89979e-17
0.0241275 0.00666667 -2.07514e-17
0.0239686 0.00670537 -1.63236e-17
0.02381 0.00674466 -1.60593e-17
0.0236514 0.00678452 -2.55097e-17
0.023493 0.00682497 -2.80215e-17
0.0233333 0.00686639 -2.67004e-17
0.0226667 0.00704419 -2.83843e-17
0.0220025 0.00723113 -3.42467e-17
0.0213415 0.00742888 -3.4119e-17
0.020684 0.00763794 -2.97057e-17
0.02 0.00787216 -3.2724e-17
0.0193333 0.00812569 -2.81008e-17
0.0186708 0.00838973 -3.03161e-17
0.0180127 0.00866489 -3.06864e-17
0.0173621 0.00895715 -3.157e-17
0.0166667 0.00929816 -3.19189e-17
0.0164058 0.00943853 -3.09655e-17
0.0161461 0.0095809 -3.24398e-17
0.0158876 0.00972553 -2.57643e-17
0.0156308 0.00987316 -2.74183e-17
0.0154161 0.01 -2.91434e-17
0.0149995 0.0102517 -3.15221e-17
0.0145891 0.0105133 -3.53979e-17
0.014185 0.0107847 -4.23578e-17
0.0137878 0.0110659 -3.5064e-17
0.0133333 0.0114077 -3.14877e-17
0.0128563 0.0117928 -3.68766e-17
0.0123896 0.0121904 -3.14089e-17
0.0119337 0.0126003 -2.92411e-17
0.0114893 0.0130227 -3.41193e-17
0.0111805 0.0133333 -2.91431e-17
0.0109444 0.0135805 -2.47022e-17
0.0107137 0.0138327 -2.65599e-17
0.0104883 0.0140897 -3.35542e-17
0.0102684 0.0143513 -3.20583e-17
0.01 0.0146838 -3.56981e-17
0.00969573 0.0150804 -2.96501e-17
0.0094007 0.0154839 -2.73658e-17
0.00911487 0.0158939 -2.69754e-17
0.00883775 0.0163099 -2.40853e-17
0.00860833 0.0166667 -3.05311e-17
0.00822 0.0172885 -2.6304e-17
0.00785926 0.0179268 -3.1654e-17
0.00752487 0.0185793 -3.65087e-17
0.00720898 0.0192409 -3.79784e-17
0.00687103 0.02 -2.72451e-17
0.00683016 0.0200983 -2.17961e-17
0.0067899 0.0201969 -2.91942e-17
0.00675014 0.0202956 -2.82697e-17
0.00671079 0.0203945 -2.68251e-17
0.00666667 0.0205067 -2.37142e-17
0.00644731 0.0210721 -1.81387e-17
0.00623958 0.0216417 -2.00983e-17
0.00604282 0.0222153 -1.63045e-17
0.00585636 0.0227923 -2.15489e-17
0.00568759 0.0233333 -2.498e-17
0.00547823 0.024 -3.09475e-17
0.00529135 0.0246733 -2.47829e-17
0.00512585 0.0253522 -2.53631e-17
0.00496822 0.026033 -2.53944e-17
0.00481763 0.0266667 -2.94254e-17
0.00465563 0.0273333 -2.65341e-17
0.00451463 0.0280048 -2.62802e-17
0.00439024 0.0286795 -2.00053e-17
0.00427005 0.0293549 -2.17188e-17
0.00415435 0.03 -2.56534e-17
0.00402962 0.0306667 -2.40579e-17
0.00392408 0.0313366 -2.44318e-17
0.00382285 0.0320073 -2.24247e-17
0.00372526 0.0326785 -1.90322e-17
0.00363352 0.0333333 -1.8541e-17
0.00357348 0.0337542 -1.32299e-17
0.00351839 0.0341757 -1.83342e-17
0.00346463 0.0345975 -1.61546e-17
0.00341219 0.0350193 -1.31294e-17
0.00333333 0.0356697 -1.66533e-17
0.00331007 0.0358691 -9.75319e-18
0.00328708 0.0360685 -8.4037e-18
0.00326434 0.036268 -7.05379e-18
0.00324186 0.0364675 -8.479e-18
0.00321967 0.0366667 -1.249e-17
0.00314483 0.0373333 -1.08247e-17
0.00307417 0.0380005 -4.86482e-19
0.0030064 0.0386679 -1.02589e-17
0.0029414 0.0393356 -8.97938e-18
0.00287938 0.04 -6.93889e-18
[...]
POINT_DATA 41143
 FIELD attributes 1
U 3 41143 float
-6.45218e-19 	-1.70309e-21 	0
-0.0152382 	2.53256e-05 	0 -0.0152382 	2.53256e-05 	0 -0.0152382 	2.53256e-05 	0 -0.0152382 	2.53256e-05 	0 -0.0152382 	2.53256e-05 	0 -0.0152382 	2.53256e-05 	0 -0.0155718 	5.04915e-05 	0 -0.0158093 	8.87818e-05 	-3.92009e-25 -0.0157695 	0.000163591 	-1.87526e-24 -0.0155161 	0.000220605 	-3.36548e-24 -0.0151919 	0.000271115 	-4.86154e-24 -0.0155167 	0.000264307 	1.90452e-22 -0.0156993 	0.000282054 	3.21038e-22 -0.0155989 	0.000351006 	3.17201e-22 -0.0153651 	0.000425864 	1.89681e-22 -0.0150697 	0.000504397 	-6.01952e-24 -0.0153718 	0.000469547 	3.45184e-23 -0.0154629 	0.000478535 	5.49595e-23 -0.015313 	0.000541869 	5.07482e-23 -0.0151086 	0.000625018 	2.72274e-23 -0.0148532 	0.000729048 	-1.63674e-23 -0.0151217 	0.00067104 	-1.20087e-23 -0.0150917 	0.000686792 	-2.90639e-23 -0.0149063 	0.000745657 	-5.84238e-23 -0.0147223 	0.000822305 	-8.90464e-23 -0.0145149 	0.000948622 	-1.23099e-22 -0.014742 	0.000872968 	-9.29452e-23 -0.0145714 	0.000913115 	-8.78747e-23 -0.0143652 	0.000969391 	-8.62095e-23 -0.0141754 	0.00102745 	-8.48298e-23 -0.0140211 	0.00116613 	-1.11401e-22 -0.0141193 	0.00110858 	-1.94525e-22 -0.0138908 	0.00116246 	-1.56182e-22 -0.0136781 	0.00121844 	-1.17259e-22 -0.0134818 	0.00127663 	-7.77316e-23 -0.0133455 	0.00138463 	1.0861e-23 -0.0132985 	0.00137264 	-4.69438e-23 -0.0131131 	0.00141799 	-3.34302e-23 -0.0129384 	0.00146509 	-1.92375e-23 -0.0127746 	0.001514 	-4.34145e-24 -0.012658 	0.00155287 	7.61831e-24 -0.0126213 	0.00156676 	1.19055e-23 -0.0125853 	0.00158078 	1.62457e-23 -0.0125502 	0.00159494 	2.06391e-23 -0.0125159 	0.00160924 	2.50863e-23 -0.0124452 	0.00165486 	9.23884e-24 -0.0122062 	0.00168299 	6.85293e-24 -0.0120025 	0.0017435 	7.77283e-24 -0.0118149 	0.00180731 	8.66182e-24 -0.011644 	0.00187456 	9.51858e-24 -0.0112861 	0.00213949 	5.15957e-23 -0.0109349 	0.00201807 	3.82021e-22 -0.010746 	0.00207174 	4.68961e-22 -0.0105836 	0.00214167 	5.41497e-22 -0.0103198 	0.00234501 	4.40708e-22 -0.00998591 	0.00268239 	1.81815e-22 -0.00967809 	0.00258987 	4.48598e-22 -0.00936865 	0.00249668 	7.15363e-22 -0.00905526 	0.00259818 	7.29542e-22 -0.00878783 	0.00290885 	4.95052e-22 -0.00856756 	0.00324831 	2.61742e-22 -0.00834353 	0.00319852 	4.66207e-22 -0.00806126 	0.00325681 	5.02e-22 -0.00776298 	0.00339085 	4.34863e-22 -0.0074984 	0.00354444 	3.64357e-22 -0.00734596 	0.00366078 	3.14936e-22 -0.00729818 	0.00370059 	3.00947e-22 -0.00725187 	0.00374137 	2.86811e-22 -0.00720705 	0.00378311 	2.72528e-22 -0.00714873 	0.00383681 	2.70903e-22 -0.0070826 	0.00389944 	2.75555e-22 -0.00667777 	0.00396582 	1.82916e-22 -0.00641056 	0.00414488 	9.87917e-23 -0.00617311 	0.0043552 	1.92635e-23 -0.00590344 	0.00463889 	2.61818e-23 -0.00562527 	0.0050417 	3.22626e-23 -0.00556352 	0.00508316 	1.86107e-23 -0.00550491 	0.00512753 	4.95227e-24 -0.00544852 	0.0051759 	3.03259e-23 -0.00539482 	0.00522785 	7.79058e-23 -0.00534954 	0.00527721 	1.20637e-22 -0.00504208 	0.00546836 	1.21497e-22 -0.00476763 	0.00569909 	1.16381e-22 -0.00453321 	0.00593783 	1.05244e-22 -0.00433716 	0.00617872 	8.85698e-23 -0.00406952 	0.00661695 	5.38267e-23 -0.00405271 	0.00664513 	8.91862e-23 -0.00403628 	0.00667383 	1.24241e-22 -0.00402023 	0.00670304 	1.58993e-22 -0.00402051 	0.00672459 	8.47875e-23 -0.00402264 	0.00674501 	4.02271e-25 -0.00363564 	0.00691506 	-6.81129e-22 -0.00342304 	0.00727339 	-1.12611e-21 -0.00327049 	0.00768968 	-1.50711e-21 -0.00336102 	0.0079863 	-1.19456e-21 -0.00343524 	0.00822448 	-9.47843e-22 -0.00300847 	0.00858471 	-6.23052e-22 -0.00274327 	0.00889639 	-3.65743e-22 -0.00265013 	0.00909879 	-1.98653e-22 -0.0025667 	0.00932693 	-2.66261e-23 -0.00269637 	0.0096871 	1.79626e-23 -0.00253084 	0.00993037 	1.46341e-24 -0.00248248 	0.0100376 	0 -0.00244688 	0.0101359 	0 -0.00241281 	0.0102389 	0 -0.00236297 	0.0104036 	0 -0.00232005 	0.0105548 	0 -0.00227987 	0.010715 	0 -0.00224234 	0.010884 	0 -0.00220736 	0.0110613 	0 -0.00227073 	0.0110087 	0 -0.00202308 	0.0111042 	0 -0.00195008 	0.0114505 	0 -0.00188621 	0.0118311 	0 -0.00189642 	0.0120504 	0 -0.00205912 	0.011826 	0 -0.00173849 	0.0119767 	0 -0.00148961 	0.0122695 	0 -0.00144263 	0.0127904 	0 -0.00163461 	0.0125638 	0 -0.00182366 	0.0122251 	0 -0.00148303 	0.0125065 	0 -0.00116078 	0.0129214 	0 -0.00112875 	0.0130193 	0 -0.00136146 	0.012659 	0 -0.00157414 	0.0121985 	0 -0.00121826 	0.0126263 	0 -0.000883611 	0.0132302 	0 -0.00084086 	0.0128563 	0 -0.00109487 	0.0124063 	0 -0.00132711 	0.0118216 	0 -0.000961082 	0.0124077 	0 -0.000720415 	0.012755 	0 -0.000695604 	0.0123157 	0 -0.000836659 	0.0117796 	0 -0.00108425 	0.0110743 	0 -0.000713445 	0.0118261 	0 -0.000577479 	0.0118245 	0 -0.0005558 	0.0113806 	0 -0.000599853 	0.0108622 	0 -0.000858065 	0.0100472 	0 -0.000487988 	0.0109672 	0 -0.000447771 	0.0106165 	0 -0.000429257 	0.0101775 	0 -0.000410743 	0.00973858 	0 -0.000657953 	0.00884167 	0 -0.000349011 	0.00960351 	0 -0.000333549 	0.00917805 	0 -0.000318087 	0.0087526 	0 -0.000302625 	0.00832714 	0 -0.000481765 	0.00743621 	0 -0.000247817 	0.00792108 	0 -0.000235126 	0.00751542 	0 -0.000222434 	0.00710977 	0 -0.000209743 	0.00670412 	0 -0.000332303 	0.00587931 	2.90561e-37 -0.000164785 	0.00608894 	0 -0.000154406 	0.00570545 	0 -0.000144028 	0.00532196 	0 -0.00013365 	0.00493847 	0 -0.000210358 	0.00422535 	2.93138e-40 -9.93242e-05 	0.00416527 	0 -9.06144e-05 	0.00380001 	0 -8.19046e-05 	0.00343476 	0 -7.31949e-05 	0.00306951 	0 -0.000112243 	0.00249758 	-1.05383e-37 -5.09892e-05 	0.00232127 	0 -4.47538e-05 	0.00203741 	0 -3.85184e-05 	0.00175354 	0 -3.2283e-05 	0.00146968 	0 -3.14791e-05 	0.000738733 	0 -1.50766e-05 	0.00068544 	0 -1.31297e-05 	0.000596929 	0 -1.11829e-05 	0.000508418 	0 -9.23606e-06 	0.000419907 	0 0 	0 	0
-0.029637 	4.00734e-05 	0 -0.0298586 	0.000177911 	0 -0.0299673 	0.000285918 	-6.94623e-25 -0.0299455 	0.000361016 	-2.15548e-24 -0.0297583 	0.0004885 	-1.77652e-23 -0.029441 	0.000660491 	-4.53497e-23 -0.0295729 	0.00073748 	-2.24375e-22 -0.0296317 	0.000812055 	-3.34758e-22 -0.0295738 	0.000882742 	-3.40601e-22 -0.0292941 	0.00104514 	-2.30579e-22 -0.0289131 	0.00125816 	-5.85159e-23 -0.0289568 	0.00127982 	-6.83472e-23 -0.0289734 	0.00131138 	-7.70194e-23 -0.028885 	0.0013787 	-8.14087e-23 -0.0284904 	0.00159828 	-5.54736e-23 -0.0280699 	0.00184884 	-2.40551e-23 -0.0280333 	0.0018237 	-4.86438e-23 -0.0279937 	0.0017982 	-7.32333e-23 -0.0278393 	0.0018841 	-9.63899e-23 -0.0273651 	0.00216262 	-9.23147e-23 -0.0269303 	0.00244715 	-8.78747e-23 -0.0268259 	0.00238612 	-2.76348e-22 -0.0267148 	0.00232408 	-4.64915e-22 -0.02641 	0.00244526 	-4.49294e-22 -0.0259424 	0.00275224 	-2.29771e-22 -0.0255171 	0.00306731 	-9.67972e-24 -0.0253601 	0.00298305 	1.52811e-22 -0.025195 	0.00289722 	3.15235e-22 -0.0246773 	0.00306364 	3.28427e-22 -0.0242345 	0.00337738 	2.40769e-22 -0.0238404 	0.00371954 	1.40456e-22 -0.0236472 	0.00362562 	2.79306e-22 -0.0232588 	0.00368698 	3.15465e-22 -0.0227518 	0.00386318 	2.78945e-22 -0.0222736 	0.00404904 	2.41215e-22 -0.0219274 	0.0044137 	9.30779e-23 -0.0217188 	0.00437627 	8.51569e-23 -0.0213196 	0.00452086 	1.16019e-22 -0.0209391 	0.00467283 	1.47399e-22 -0.0205783 	0.00483254 	1.79317e-22 -0.0203305 	0.00495476 	2.02976e-22 -0.020234 	0.00500885 	2.04827e-22 -0.0201395 	0.00506375 	2.06615e-22 -0.0200471 	0.00511948 	2.08337e-22 -0.0199567 	0.00517603 	2.09994e-22 -0.0198018 	0.00528113 	2.18183e-22 -0.0192973 	0.00543161 	1.97866e-22 -0.0188753 	0.00564684 	2.02115e-22 -0.0184852 	0.00587735 	2.03973e-22 -0.0180513 	0.0061816 	2.23323e-22 -0.017476 	0.00664589 	2.83174e-22 -0.0169863 	0.0067692 	1.60714e-22 -0.0165272 	0.006911 	3.74003e-23 -0.0159682 	0.00717295 	0 -0.015516 	0.00760833 	4.02857e-23 -0.0150866 	0.00811896 	8.1386e-23 -0.0149423 	0.00819023 	3.48627e-23 -0.0147893 	0.00827509 	0 -0.0146011 	0.0083939 	0 -0.0144205 	0.00851811 	0 -0.014275 	0.00862729 	0 -0.0139474 	0.00888614 	0 -0.0136434 	0.00916431 	0 -0.0133636 	0.00946209 	0 -0.0130226 	0.00979406 	0 -0.0126468 	0.0102105 	0 -0.0122952 	0.0104735 	0 -0.0119773 	0.0107669 	0 -0.0116449 	0.0110711 	0 -0.011334 	0.0114012 	0 -0.0111381 	0.0116598 	0 -0.0109162 	0.0119299 	0 -0.0107084 	0.0122145 	0 -0.0104978 	0.0124844 	-1.84436e-23 -0.0102874 	0.0127451 	-5.15842e-23 -0.0100412 	0.0130875 	-9.29286e-23 -0.00978891 	0.0133877 	-9.92807e-23 -0.00955908 	0.0137136 	-1.06745e-22 -0.00935652 	0.0140461 	-1.37761e-22 -0.00920131 	0.0143081 	-2.85888e-22 -0.00908302 	0.0145455 	-4.11836e-22 -0.00856358 	0.0151518 	-6.36524e-22 -0.0081045 	0.0158142 	-8.26414e-22 -0.0077773 	0.016289 	-5.30194e-22 -0.00748525 	0.016813 	-2.39049e-22 -0.00728312 	0.017516 	1.45809e-22 -0.00721564 	0.0176645 	2.43347e-22 -0.0071593 	0.0177839 	2.72494e-22 -0.00711269 	0.0178777 	2.41341e-22 -0.00706695 	0.0179728 	2.10525e-22 -0.00701612 	0.018082 	1.75999e-22 -0.0067739 	0.0185766 	1.60473e-22 -0.00655631 	0.0191126 	1.46405e-22 -0.00636191 	0.0196872 	1.33709e-22 -0.00628873 	0.0201592 	1.35759e-22 -0.00640117 	0.0203835 	1.61255e-22 -0.00583374 	0.0210185 	1.01252e-22 -0.00530048 	0.0217417 	4.23327e-23 -0.00520993 	0.0225008 	1.69806e-22 -0.00543285 	0.0228623 	3.55629e-22 -0.00563333 	0.0231822 	5.27239e-22 -0.00505319 	0.0240623 	2.32887e-22 -0.00458993 	0.0248969 	0 -0.00448574 	0.0252085 	0 -0.00458744 	0.0255771 	2.90366e-25 -0.0048557 	0.0259535 	8.17472e-25 -0.00426841 	0.0270975 	2.94893e-26 -0.00414782 	0.0274792 	0 -0.00405046 	0.0278554 	0 -0.0039583 	0.028256 	0 -0.00408816 	0.0286584 	-1.21343e-22 -0.00382907 	0.0292973 	0 -0.00376691 	0.0295519 	0 -0.00370678 	0.0298173 	0 -0.00364862 	0.0300934 	0 -0.00356196 	0.0305348 	0 -0.00353726 	0.0306755 	0 -0.00351296 	0.0308184 	0 -0.00348904 	0.0309635 	0 -0.0034655 	0.0311106 	0 -0.00348788 	0.0310692 	0 -0.00333944 	0.0315282 	0 -0.00324915 	0.0319971 	0 -0.00316332 	0.0324937 	0 -0.00308176 	0.0330166 	0 -0.00319874 	0.0326712 	0 -0.00289471 	0.0333474 	0 -0.00280779 	0.0338713 	0 -0.00272491 	0.0344237 	0 -0.00265547 	0.0349554 	0 -0.0028999 	0.0339553 	0 -0.00252983 	0.0348754 	0 -0.00238793 	0.0355269 	0 -0.00230756 	0.0361248 	0 -0.00235234 	0.0360895 	0 -0.0025997 	0.0349351 	0 -0.0022357 	0.0360208 	0 -0.00199726 	0.0369475 	0 -0.00191996 	0.0375791 	0 -0.00206328 	0.0369582 	0 -0.00231004 	0.0356562 	0 -0.00195696 	0.0369002 	0 -0.0016474 	0.0381638 	7.60897e-38 -0.00157534 	0.0388171 	6.4793e-37 -0.00180057 	0.0376185 	1.22138e-36 -0.00204483 	0.0361784 	1.78797e-36 -0.00170656 	0.0375698 	1.15729e-36 -0.00137568 	0.039096 	5.32876e-37 -0.00132702 	0.039564 	7.82571e-40 -0.00157568 	0.0380927 	1.66338e-39 -0.00181835 	0.0365243 	2.53391e-39 -0.0014974 	0.0380505 	1.57815e-39 -0.00118311 	0.0397144 	6.31444e-40 -0.00115182 	0.0399867 	-3.96643e-37 -0.00140366 	0.0384017 	-9.75985e-37 -0.00164987 	0.0367122 	-1.54904e-36 -0.00134699 	0.0383623 	-9.26217e-37 -0.00105024 	0.040152 	-3.09013e-37 -0.00103842 	0.0402634 	0 -0.00130526 	0.0385687 	0 -0.00156629 	0.0367567 	0 -0.0012805 	0.0385274 	0 -0.00100065 	0.0404405 	0 -0.00100561 	0.0403979 	0 -0.00130822 	0.0385848 	0 -0.00160383 	0.0366307 	0 -0.00133322 	0.0385363 	0 -0.00106899 	0.0405906 	0 -0.00107689 	0.0403504 	0 -0.00144786 	0.0383839 	0 -0.00180856 	0.0362321 	0 -0.00155286 	0.038324 	0 -0.00130512 	0.0405786 	0 -0.00128139 	0.03997 	0 -0.00175777 	0.0377861 	0 -0.00222484 	0.035313 	0 -0.0019915 	0.0377197 	0 -0.00180396 	0.0395558 	0 -0.0017579 	0.0385457 	0 -0.00221895 	0.0362737 	0 -0.002837 	0.0332324 	0 -0.00265388 	0.0362421 	0 -0.00251003 	0.0370138 	0 -0.00239461 	0.0353117 	0 -0.00262768 	0.0328369 	0 -0.00341959 	0.0287819 	0 -0.00335847 	0.033011 	0 -0.00309262 	0.0309647 	0 -0.00279511 	0.0279859 	0 -0.0024976 	0.0250072 	0 -0.00318453 	0.0196034 	0 -0.00308621 	0.022232 	0 -0.00242459 	0.0174658 	0 -0.00176296 	0.0126997 	0 -0.00110133 	0.0079336 	0 -0.000166547 	0.000800201 	0 -0.000175602 	0.00101904 	0 -0.000139015 	0.000806726 	0 -0.000102429 	0.000594409 	0 -6.58422e-05 	0.000382093 	0 0 	0 	0
-0.0430767 	4.27324e-05 	0 -0.0430456 	0.000254908 	-2.01449e-23 -0.0429636 	0.000488175 	-4.60047e-23 -0.0429023 	0.000721952 	-7.20032e-23 -0.0428618 	0.000956233 	-9.81402e-23 -0.0427974 	0.00118099 	-1.24664e-22 -0.0426501 	0.00137681 	-1.53427e-22 -0.042465 	0.00159574 	-1.53763e-22 -0.0422997 	0.0018162 	-1.5331e-22 -0.0421544 	0.00203818 	-1.52058e-22 -0.0421036 	0.00212898 	-1.51222e-22 -0.0420909 	0.00215585 	-1.51495e-22 -0.0420784 	0.00218274 	-1.51763e-22 -0.0420663 	0.00220966 	-1.52026e-22 -0.0420545 	0.0022366 	-1.52285e-22 -0.0420335 	0.00226817 	-1.53334e-22 -0.0417562 	0.00247586 	-1.25541e-22 -0.0414948 	0.00268512 	-9.77247e-23 -0.0412537 	0.00289705 	-6.97223e-23 -0.0410335 	0.00311169 	-4.15317e-23 -0.040721 	0.00338806 	-1.86448e-23 -0.0404073 	0.00358456 	-3.52541e-24 -0.0400844 	0.00378826 	5.00041e-24 -0.039782 	0.00399567 	1.37502e-23 -0.0395007 	0.00420687 	2.27287e-23 -0.0389771 	0.00456793 	1.69724e-23 -0.0386162 	0.00472478 	2.11273e-22 -0.0382552 	0.00492968 	2.54864e-22 -0.0379156 	0.00513949 	2.9975e-22 -0.0374979 	0.00541339 	2.74952e-22 -0.0368561 	0.0058439 	7.40052e-23 -0.0364368 	0.00597721 	4.75066e-23 -0.0360417 	0.0061341 	3.02895e-23 -0.0356892 	0.00635461 	4.23214e-23 -0.035036 	0.00678687 	7.49262e-23 -0.0344083 	0.00724573 	1.07817e-22 -0.0339633 	0.00737717 	5.87238e-23 -0.0335362 	0.00751539 	9.42844e-24 -0.0328759 	0.00783161 	7.71901e-26 -0.0322624 	0.00829846 	1.6721e-23 -0.0316822 	0.00879385 	3.32097e-23 -0.0312448 	0.00894288 	5.13158e-24 -0.0305971 	0.00926635 	0 -0.0299348 	0.00964568 	0 -0.029315 	0.0100469 	0 -0.028753 	0.0104613 	0 -0.0287463 	0.0104674 	0 -0.0287397 	0.0104734 	0 -0.0287331 	0.0104795 	0 -0.0287252 	0.0104861 	0 -0.0287149 	0.0104941 	0 -0.0280533 	0.0108914 	0 -0.0274379 	0.0113185 	0 -0.0268676 	0.0117737 	0 -0.0262448 	0.012306 	0 -0.0254618 	0.0130016 	0 -0.0248234 	0.0133957 	0 -0.0242175 	0.0138324 	0 -0.0234728 	0.0143806 	0 -0.0227954 	0.014977 	0 -0.0220975 	0.0157204 	0 -0.0220968 	0.0157212 	0 -0.022096 	0.0157219 	0 -0.0220951 	0.0157227 	0 -0.0220941 	0.0157234 	0 -0.0220931 	0.0157242 	0 -0.021329 	0.0163528 	0 -0.0206331 	0.0170449 	0 -0.0199928 	0.0177962 	-3.12114e-26 -0.0192792 	0.018565 	-3.67931e-25 -0.0184426 	0.0196637 	-8.11456e-25 -0.0183493 	0.0197882 	-8.13462e-25 -0.0182581 	0.0199146 	-8.15824e-25 -0.0181634 	0.0200334 	-7.0074e-24 -0.0180629 	0.0201408 	-2.17618e-23 -0.0179695 	0.0202446 	-3.57576e-23 -0.01719 	0.0210848 	-3.19701e-23 -0.0164898 	0.0220152 	-2.4774e-23 -0.0158348 	0.0228777 	-5.23812e-23 -0.0152606 	0.0237478 	-1.10002e-22 -0.0148589 	0.0246433 	-1.88145e-22 -0.0147659 	0.024838 	-2.52051e-22 -0.0146745 	0.0250287 	-3.013e-22 -0.014582 	0.0251766 	-2.39191e-22 -0.0144911 	0.0253264 	-1.77495e-22 -0.0143928 	0.0254936 	-1.0994e-22 -0.0139394 	0.0262163 	2.53324e-22 -0.0135288 	0.0269926 	6.04208e-22 -0.0131593 	0.0278195 	9.43086e-22 -0.0129172 	0.0284138 	6.48416e-22 -0.0127487 	0.028896 	2.28328e-22 -0.0121006 	0.0299704 	-1.29736e-22 -0.0115067 	0.0311287 	-4.92637e-22 -0.011131 	0.0318234 	-9.0882e-23 -0.010895 	0.0325926 	6.55722e-22 -0.0108008 	0.0333406 	1.62798e-21 -0.0104557 	0.0341859 	2.2728e-21 -0.01022 	0.0347544 	2.03663e-21 -0.0100222 	0.0352553 	1.55378e-21 -0.00983401 	0.035774 	1.08104e-21 -0.00957425 	0.0365517 	4.0909e-22 -0.00948312 	0.0368552 	3.06559e-22 -0.00939456 	0.0371637 	2.0429e-22 -0.0093085 	0.0374771 	1.02281e-22 -0.00922828 	0.0377892 	2.85919e-24 -0.00929346 	0.0378431 	3.03047e-24 -0.0087809 	0.0387705 	-8.39781e-23 -0.00850907 	0.0397588 	-2.94138e-22 -0.00825922 	0.0407942 	-5.08224e-22 -0.00816362 	0.0416015 	-7.25709e-22 -0.00840247 	0.0417551 	-9.37888e-22 -0.00772799 	0.0429188 	-6.14174e-22 -0.00713106 	0.0441641 	-1.60506e-22 -0.0069529 	0.045316 	1.24499e-21 -0.00724765 	0.0454779 	2.3676e-21 -0.00752571 	0.0456056 	3.45203e-21 -0.00684686 	0.0469976 	1.91979e-21 -0.00619494 	0.0484929 	4.08538e-22 -0.0060348 	0.0491202 	6.5429e-25 -0.00635859 	0.0492433 	3.63916e-24 -0.00666642 	0.0493272 	6.54316e-24 -0.00598823 	0.0509396 	2.7032e-24 -0.00548793 	0.0522542 	0 -0.00538017 	0.0526483 	0 -0.00551084 	0.052859 	-2.99883e-21 -0.00583781 	0.0528787 	-8.50753e-21 -0.00516587 	0.0546966 	-1.61236e-21 -0.00492834 	0.0554384 	0 -0.00482412 	0.0558574 	0 -0.00472255 	0.0562974 	0 -0.0050567 	0.056234 	-1.07947e-23 -0.00448947 	0.0579493 	0 -0.00438747 	0.0583633 	0 -0.00428782 	0.0587987 	0 -0.00419049 	0.0592548 	0 -0.00433625 	0.0593502 	2.53967e-21 -0.00397464 	0.0605775 	3.30267e-37 -0.00388011 	0.0610001 	9.66705e-37 -0.00378756 	0.0614432 	1.60203e-36 -0.00369695 	0.0619063 	2.23625e-36 -0.00369608 	0.0622146 	2.98472e-36 -0.00354298 	0.0628245 	3.24669e-36 -0.00348825 	0.0631011 	2.69744e-36 -0.00343422 	0.0633858 	2.15123e-36 -0.00338087 	0.0636786 	1.60803e-36 -0.00330972 	0.0640849 	8.78305e-37 -0.00328668 	0.0642238 	6.94501e-37 -0.00326377 	0.0643643 	5.10776e-37 -0.00324099 	0.0645062 	3.27129e-37 -0.00321834 	0.0646497 	1.43558e-37 -0.0032181 	0.0646405 	4.48449e-39 -0.00313357 	0.065136 	-5.18523e-37 -0.00307065 	0.0655641 	-1.08688e-36 -0.0030089 	0.0660074 	-1.65604e-36 -0.00294829 	0.0664657 	-2.22596e-36 -0.00297799 	0.0662649 	-2.79599e-36 -0.00285812 	0.0670727 	-2.17317e-36 -0.00282791 	0.0675074 	-1.55167e-36 -0.00279836 	0.0679515 	-9.30589e-37 -0.00276946 	0.0684046 	-3.0991e-37 -0.00288391 	0.0676779 	0 -0.00273805 	0.0688317 	0 -0.00276135 	0.0692905 	0 -0.00278458 	0.0697483 	0 -0.00280775 	0.0702051 	0 -0.00301744 	0.0689168 	0 -0.00283892 	0.0704701 	0 -0.00294862 	0.070987 	0 -0.00305694 	0.0714855 	0 -0.0031639 	0.0719661 	0 -0.00349357 	0.0699888 	0 -0.00324594 	0.0720557 	0 -0.00349327 	0.0726895 	0 -0.0037364 	0.0732763 	0 -0.00400288 	0.0734368 	0 -0.00446137 	0.0708115 	0 -0.00422802 	0.0732183 	0 -0.00450615 	0.0744658 	0 -0.00495759 	0.0752223 	0 -0.00546742 	0.0743487 	0 -0.00606539 	0.0710495 	0 -0.00588227 	0.0740591 	0 -0.00604511 	0.0764466 	0 -0.00680507 	0.0775187 	0 -0.00756985 	0.0744646 	0 -0.0083054 	0.0699047 	0 -0.00824428 	0.0741338 	0 -0.00820375 	0.0785402 	0 -0.00907831 	0.0787857 	0 -0.00990887 	0.0724292 	0 -0.0106442 	0.0655241 	0 -0.0108547 	0.0722753 	0 -0.0111183 	0.0793642 	0 -0.0105725 	0.0757145 	0 -0.0110411 	0.0654328 	0 -0.0113138 	0.054359 	0 -0.0120381 	0.0665175 	0 -0.0115211 	0.066859 	0 -0.0100135 	0.05811 	0 -0.00850591 	0.0493611 	0 -0.00720986 	0.0312897 	0 -0.00791674 	0.046288 	0 -0.00643076 	0.0375998 	0 -0.00494479 	0.0289115 	0 -0.00345882 	0.0202232 	0 0 	0 	0