# vtk DataFile Version 2.0
track0
ASCII
DATASET POLYDATA
POINTS 41218 float
0.05 8.57988e-20 2.57396e-18
0.05 0.00217391 -1.05592e-17
0.05 0.00217391 -1.05592e-17
0.05 0.00217391 -1.05592e-17
0.05 0.00217391 -1.05592e-17
0.05 0.00217391 -1.05592e-17
0.05 0.00217391 -1.38778e-17
0.0493333 0.0021751 -5.27356e-18
0.0486667 0.00217733 -4.71845e-18
0.048 0.00218112 -6.29031e-18
0.0473334 0.00218807 -1.26644e-17
0.0466667 0.00219759 -1.11022e-17
0.046 0.00220954 -1.80411e-18
0.0453333 0.00222094 -1.24898e-18
0.0446667 0.00223294 2.29611e-18
0.0440001 0.00224796 -7.92392e-18
0.0433333 0.00226646 -1.11022e-17
0.0426667 0.00228881 -6.66134e-18
0.0419999 0.00230919 -2.6372e-18
0.0413332 0.00232984 -4.97192e-18
0.0406666 0.00235343 2.32575e-18
0.04 0.00238101 -4.16334e-18
0.0393333 0.00241374 -1.80411e-18
0.0386665 0.00244333 -4.02431e-18
0.0379997 0.00247368 -3.02799e-18
0.0373331 0.00250702 -7.01108e-20
0.0366667 0.00254423 6.93889e-18
0.036 0.00258779 2.77556e-19
0.0353331 0.00262727 1.18215e-18
0.0346663 0.00266904 3.90578e-18
0.0339997 0.002714 -3.47629e-18
0.0333333 0.00276228 -6.93889e-18
0.0326667 0.0028177 -1.27676e-17
0.0319998 0.00287004 -1.16569e-17
0.0313331 0.0029258 -1.85814e-17
0.0306668 0.00298513 -1.5082e-17
0.03 0.00304823 -6.93889e-18
0.0294501 0.00310525 -1.29621e-17
0.0289002 0.00316198 -2.10668e-17
0.0283506 0.00322138 -1.55762e-17
0.0278013 0.00328354 -1.76223e-17
0.0273809 0.00333333 -1.83387e-17
0.027238 0.00335084 -1.10628e-17
0.0270952 0.00336856 -1.41951e-17
0.0269524 0.00338648 -1.03884e-17
0.0268097 0.00340462 -2.41836e-18
0.0266667 0.00342299 -3.93937e-18
0.026 0.00351159 -1.75958e-17
0.0253338 0.00360339 -2.01421e-17
0.0246682 0.00370001 -1.08966e-17
0.0240034 0.00380164 -8.0548e-18
0.0233333 0.00390945 -2.03883e-17
0.0226667 0.00403575 -2.19864e-17
0.0219994 0.00415881 -1.66403e-17
0.0213331 0.00428718 -1.7137e-17
0.0206681 0.00442168 -1.35399e-17
0.02 0.00457338 -7.18638e-18
0.0193333 0.00475234 -6.71946e-18
0.0186665 0.00493067 -1.12769e-17
0.0179995 0.0051083 -1.17858e-17
0.0173359 0.00529855 -3.76451e-18
0.0166667 0.00551994 -6.93889e-18
0.0160615 0.00574929 7.06293e-18
0.0154571 0.00598086 6.69294e-18
0.014857 0.00622323 9.79163e-18
0.0142639 0.00648227 4.38112e-18
0.0138738 0.00666667 3.26321e-18
0.0137657 0.00672055 -2.10788e-18
0.013658 0.00677518 -3.31626e-18
0.0135507 0.00683056 1.02584e-18
0.0134437 0.0068867 3.13162e-18
0.0133333 0.00694593 -1.85285e-18
0.0126667 0.00731283 1.69948e-18
0.0120124 0.00770134 3.5859e-19
0.0113733 0.00811451 3.34293e-19
0.0107516 0.00855321 6.27385e-18
0.01 0.00914394 6.93889e-18
0.00980908 0.00931515 4.64025e-18
0.00961982 0.0094882 3.72525e-18
0.00943224 0.00966306 6.9084e-18
0.00924639 0.00983977 7.13805e-18
0.00908121 0.01 6.93889e-18
0.00859831 0.0104769 9.518e-18
0.00813855 0.0109762 5.58496e-18
0.00770343 0.0114971 3.54212e-18
0.00729198 0.0120368 2.15909e-18
0.00666667 0.0129291 -6.93889e-18
0.00661703 0.0130099 -2.85821e-18
0.0065677 0.013091 -2.94037e-18
0.00651867 0.0131722 -3.02203e-18
0.00646993 0.0132536 -7.99905e-18
0.00642233 0.0133333 -6.93889e-18
0.0060254 0.014 -5.27356e-18
0.00566476 0.014687 -6.76454e-18
0.00533475 0.0153892 -7.14353e-18
0.0050315 0.0161033 -4.0196e-18
0.00479478 0.0166667 -7.62501e-18
0.00451672 0.0173333 -6.06447e-18
0.00427807 0.0180151 -4.29293e-18
0.00406555 0.0187055 -3.71834e-18
0.00386384 0.0193991 -2.32207e-18
0.00369868 0.02 6.06389e-18
0.00362561 0.0202626 1.09573e-17
0.0035584 0.0205268 8.48214e-18
0.00349308 0.0207914 1.56236e-17
0.00342926 0.0210564 1.75589e-17
0.00333333 0.0214645 1.69386e-17
0.00324872 0.0218383 1.37369e-17
0.00316666 0.0222126 1.91513e-17
0.00308706 0.0225875 2.17943e-17
0.00300984 0.0229628 2.44413e-17
0.00293598 0.0233333 2.498e-17
0.00279867 0.024 1.97065e-17
0.00267669 0.0246696 2.20607e-17
0.0025624 0.0253406 2.89875e-17
0.00245518 0.0260128 2.69497e-17
0.00235236 0.0266667 2.08167e-17
0.00223639 0.0273333 2.52576e-17
0.00213922 0.028003 2.24201e-17
0.00205749 0.0286747 2.4937e-17
0.00198146 0.0293471 1.89047e-17
0.0018965 0.03 2.498e-17
0.00179707 0.0306667 2.45637e-17
0.00171764 0.031336 2.76123e-17
0.00165721 0.0320073 2.76133e-17
0.00159887 0.0326788 2.58588e-17
0.00152839 0.0333333 2.08106e-17
0.00144229 0.034 3.0171e-17
0.0013776 0.0346691 3.13379e-17
0.0013326 0.0353398 3.2644e-17
0.00128855 0.0360105 3.92171e-17
0.00123049 0.0366667 4.16659e-17
0.00115551 0.0373333 4.10968e-17
0.0011035 0.0380022 4.37545e-17
0.00106558 0.038672 4.07225e-17
0.00102766 0.0393418 3.80853e-17
0.000980689 0.04 4.27757e-17
0.000915212 0.0406667 4.1497e-17
0.000874619 0.0413353 4.587e-17
0.000841814 0.0420044 4.00301e-17
0.000809008 0.0426735 4.18817e-17
0.000772317 0.0433333 4.10411e-17
0.000715113 0.044 3.90547e-17
0.000685088 0.0446684 4.06342e-17
0.000656727 0.045337 3.51742e-17
0.000628365 0.0460055 3.44078e-17
0.000600315 0.0466667 3.64703e-17
0.000550379 0.0473333 3.35871e-17
0.000525902 0.0480014 4.29804e-17
0.000501425 0.0486695 4.62777e-17
0.000476948 0.0493376 4.20426e-17
0.000452679 0.05 4.08795e-17
0.00040911 0.0506667 3.44295e-17
0.000387992 0.0513344 3.83523e-17
0.000366874 0.0520022 3.82991e-17
0.000345756 0.0526699 3.57993e-17
0.000324776 0.0533333 3.13781e-17
0.000286668 0.054 2.80415e-17
0.000268349 0.0546675 2.12039e-17
0.000250031 0.055335 2.61568e-17
0.000231712 0.0560025 2.53922e-17
0.000213485 0.0566667 2.87878e-17
0.000179821 0.0573333 2.99541e-17
0.000163629 0.0580007 3.38679e-17
0.000147437 0.058668 2.75452e-17
0.000131245 0.0593353 2.81686e-17
0.000115116 0.06 2.89516e-17
9.2093e-05 0.0605036 3.19103e-17
8.07931e-05 0.0610076 3.20745e-17
6.94932e-05 0.0615116 3.57082e-17
5.81933e-05 0.0620155 3.0991e-17
2.8647e-05 0.0633333 3.18712e-17
2.29176e-05 0.0634652 3.59167e-17
1.99509e-05 0.0635971 3.07638e-17
1.69842e-05 0.0637291 3.25497e-17
1.40175e-05 0.063861 2.65294e-17
0 0.0644845 3.38359e-17
0.05 0.00434783 5.94331e-18
0.0493333 0.00434885 3.16606e-18
0.0486667 0.00435291 3.83728e-19
0.048 0.00435935 1.59588e-18
0.0473334 0.00436747 6.11807e-19
0.0466667 0.00437849 7.97391e-18
0.046 0.00439354 5.86719e-18
0.0453334 0.00441023 2.36994e-18
0.0446668 0.00442855 -4.84915e-19
0.0440003 0.0044485 2.39724e-18
0.0433333 0.00447235 2.03626e-18
0.0426667 0.00450142 8.12798e-18
0.042 0.00453093 1.1794e-17
0.0413334 0.00456114 1.09633e-17
0.0406669 0.00459298 6.61703e-18
0.04 0.00463043 5.47268e-18
0.0393333 0.00467439 3.66476e-18
0.0386666 0.00471779 4.69976e-19
0.0379999 0.00476064 3.27917e-18
0.0373333 0.00480577 6.19915e-18
0.0366667 0.00485848 5.75089e-18
0.036 0.00491908 4.79837e-18
0.0353332 0.00497841 -1.30217e-18
0.0346663 0.00503644 -2.40272e-18
0.0339998 0.00509817 -8.20602e-19
0.0333333 0.00516888 -6.93889e-18
0.0326667 0.00524903 -3.19189e-18
0.0319998 0.00532748 -3.26077e-18
0.0313327 0.00540419 -7.72153e-18
0.0306664 0.00548692 -9.13756e-18
0.03 0.00557979 -6.93889e-18
0.0293333 0.00568381 -3.88578e-18
0.0286664 0.00578606 -7.14661e-18
0.028 0.00589171 -3.92736e-18
0.0273348 0.00600467 -7.32445e-18
0.0266667 0.00612613 4.16334e-18
0.0261296 0.00623423 6.44556e-18
0.0255925 0.00634245 -2.92808e-19
0.0250565 0.00645608 2.03089e-18
0.0245218 0.00657538 -9.27504e-18
0.0241329 0.00666667 -2.71936e-18
0.023973 0.00670562 -5.2286e-18
0.0238132 0.00674516 -4.96252e-18
0.0236536 0.00678529 -1.92113e-18
0.0234941 0.00682601 -1.27578e-17
0.0233333 0.00686771 -8.66147e-18
0.0226667 0.00704553 -3.4065e-18
0.0220025 0.0072325 -3.71785e-18
0.0213415 0.00743028 -1.15925e-18
0.020684 0.00763937 8.27807e-19
0.02 0.00787363 -3.92389e-18
0.0193333 0.00812722 -8.61828e-19
0.0186708 0.00839132 5.07222e-18
0.0180127 0.00866656 4.71565e-18
0.0173622 0.00895892 9.36653e-18
0.0166667 0.00930009 6.93889e-18
0.0164067 0.00944007 1.34448e-17
0.0161478 0.00958205 6.41527e-18
0.0158901 0.00972627 1.98715e-18
0.0156341 0.00987348 6.57677e-18
0.01542 0.01 0
0.0150026 0.0102523 -1.8079e-18
0.0145914 0.0105144 -3.6041e-19
0.0141867 0.0107864 -7.6661e-18
0.0137888 0.0110683 -4.53049e-18
0.0133333 0.0114111 -7.90107e-18
0.0128576 0.0117955 -9.1189e-18
0.0123922 0.0121924 -1.26696e-17
0.0119375 0.0126015 -6.34907e-18
0.0114944 0.0130231 1.97196e-18
0.0111862 0.0133333 -1.09678e-18
0.0109489 0.0135818 -2.54276e-18
0.0107171 0.0138354 -2.26451e-19
0.0104908 0.0140938 -4.06107e-18
0.0102698 0.0143569 -3.60195e-18
0.01 0.0146917 -1.08271e-18
0.00969747 0.0150867 -6.05493e-18
0.00940409 0.0154885 -9.31906e-18
0.00911982 0.0158969 -8.24866e-18
0.0088442 0.0163111 -8.83049e-18
0.00861574 0.0166667 1.38778e-18
0.00822592 0.0172914 -5.73269e-18
0.00786391 0.0179326 -1.483e-17
0.00752845 0.0185881 -1.63638e-17
0.00721159 0.0192528 -1.15809e-17
0.00687954 0.02 -2.02849e-17
0.00683696 0.0201024 -2.31668e-17
0.00679506 0.0202051 -1.01939e-17
0.00675369 0.0203079 -8.65267e-18
0.00671276 0.020411 -1.01476e-17
0.00666667 0.0205285 -1.25577e-17
0.00644959 0.0210894 -8.38081e-18
0.00624389 0.0216547 -7.34664e-19
0.00604895 0.0222237 3.59078e-19
0.00586411 0.0227961 -7.45135e-19
0.00569659 0.0233333 0
0.00548731 0.024 -4.16334e-19
0.00530046 0.0246733 -4.9676e-19
0.00513492 0.0253521 4.69206e-19
0.00497724 0.0260329 -4.56285e-18
0.00482655 0.0266667 4.42396e-18
0.00466447 0.0273333 4.71296e-18
0.00452333 0.0280047 1.28744e-18
0.00439894 0.0286795 2.19913e-18
0.00427871 0.0293549 -8.87662e-19
0.00416282 0.03 6.9453e-18
0.00403788 0.0306667 3.68392e-18
0.0039321 0.0313366 1.2288e-18
0.00383076 0.0320073 3.94301e-18
0.00373304 0.0326785 8.02942e-18
0.00364117 0.0333333 1.05896e-17
0.0035796 0.0337636 9.67394e-18
0.0035232 0.0341946 9.44475e-18
0.00346819 0.0346257 3.31549e-18
0.00341454 0.0350571 -3.99818e-18
0.00333333 0.0357268 -5.55112e-18
0.00331142 0.0359148 -5.5876e-18
0.00328974 0.0361028 -5.62371e-18
0.00326829 0.0362908 -7.04721e-18
0.00324707 0.0364789 -8.47033e-18
0.0032261 0.0366667 0
0.00315112 0.0373333 -7.35523e-18
0.00308024 0.0380004 -7.07842e-18
0.00301224 0.0386679 -5.3473e-19
0.00294699 0.0393356 -2.03117e-18
0.00288471 0.04 -6.93889e-18
0.00281923 0.0406667 -1.01308e-17
[...]
POINT_DATA 41218
 FIELD attributes 1
U 3 41218 float
-6.38151e-19 	-1.64655e-21 	0
-0.015063 	2.68646e-05 	0 -0.015063 	2.68646e-05 	0 -0.015063 	2.68646e-05 	0 -0.015063 	2.68646e-05 	0 -0.015063 	2.68646e-05 	0 -0.015063 	2.68646e-05 	0 -0.0153951 	5.13481e-05 	0 -0.0156311 	8.88657e-05 	-4.19972e-25 -0.0155912 	0.000162614 	-2.00786e-24 -0.0153389 	0.000219066 	-3.60318e-24 -0.0150161 	0.000269192 	-5.20477e-24 -0.0153394 	0.000262175 	2.03653e-22 -0.0155211 	0.000279501 	3.43154e-22 -0.0154214 	0.000347471 	3.38958e-22 -0.0151886 	0.000421464 	2.02632e-22 -0.0148943 	0.000499199 	-6.72516e-24 -0.0151952 	0.000464574 	4.75072e-23 -0.0152862 	0.000473355 	7.68292e-23 -0.0151377 	0.000535797 	7.56793e-23 -0.0149344 	0.000617884 	4.87644e-23 -0.0146794 	0.000720731 	-5.01116e-24 -0.0149473 	0.000663321 	-3.67696e-24 -0.0149181 	0.000678868 	-1.95835e-23 -0.0147347 	0.000736924 	-4.53562e-23 -0.0145521 	0.000812522 	-7.1583e-23 -0.0143444 	0.000937316 	-9.8949e-23 -0.0145716 	0.000862558 	-7.47155e-23 -0.0144029 	0.000902245 	-7.27957e-23 -0.014199 	0.000957772 	-7.38735e-23 -0.0140113 	0.00101506 	-7.51905e-23 -0.0138563 	0.00115195 	-9.8965e-23 -0.0139552 	0.0010952 	-1.80212e-22 -0.0137294 	0.00114838 	-1.452e-22 -0.0135192 	0.00120365 	-1.09622e-22 -0.013325 	0.00126109 	-7.34552e-23 -0.013189 	0.00136765 	1.04705e-23 -0.0131435 	0.00135587 	-4.54078e-23 -0.0129604 	0.00140063 	-3.23365e-23 -0.0127877 	0.00144711 	-1.86092e-23 -0.0126259 	0.00149539 	-4.20236e-24 -0.0125106 	0.00153376 	7.36794e-24 -0.0124742 	0.00154749 	1.15218e-23 -0.0124386 	0.00156135 	1.57269e-23 -0.0124038 	0.00157535 	1.99837e-23 -0.0123699 	0.00158949 	2.42926e-23 -0.0122997 	0.00163456 	8.94702e-24 -0.0120638 	0.00166234 	6.65614e-24 -0.0118624 	0.0017221 	7.5703e-24 -0.0116769 	0.00178512 	8.45434e-24 -0.011508 	0.00185153 	9.30695e-24 -0.0111531 	0.00211292 	5.04292e-23 -0.0108075 	0.00199319 	3.73438e-22 -0.0106209 	0.00204633 	4.58241e-22 -0.0104603 	0.0021154 	5.29113e-22 -0.0101989 	0.00231593 	4.30856e-22 -0.00986726 	0.00264884 	1.77918e-22 -0.00956423 	0.00255769 	4.39593e-22 -0.00925959 	0.00246586 	7.01252e-22 -0.00895025 	0.00256619 	7.15269e-22 -0.00868436 	0.00287279 	4.85445e-22 -0.00846497 	0.00320781 	2.5679e-22 -0.00824399 	0.0031588 	4.58146e-22 -0.00796454 	0.00321669 	4.9337e-22 -0.00766883 	0.0033494 	4.2742e-22 -0.00740648 	0.0035015 	3.58139e-22 -0.0072555 	0.00361658 	3.09627e-22 -0.00720857 	0.00365565 	2.96005e-22 -0.00716306 	0.00369566 	2.82241e-22 -0.00711901 	0.00373661 	2.68334e-22 -0.00706164 	0.00378924 	2.66765e-22 -0.00699658 	0.00385057 	2.71309e-22 -0.00659725 	0.00391724 	1.80255e-22 -0.00633261 	0.00409436 	9.75103e-23 -0.00609751 	0.00430228 	1.9065e-23 -0.00583 	0.00458241 	2.58794e-23 -0.00555368 	0.00498039 	3.18662e-23 -0.00549246 	0.00502172 	1.83861e-23 -0.00543436 	0.00506594 	4.89955e-24 -0.0053784 	0.00511402 	2.96909e-23 -0.00532508 	0.00516561 	7.63264e-23 -0.00528015 	0.00521458 	1.18184e-22 -0.00497632 	0.00540401 	1.18956e-22 -0.00470509 	0.00563255 	1.13873e-22 -0.00447348 	0.00586868 	1.02892e-22 -0.00427981 	0.00610673 	8.64921e-23 -0.00401503 	0.00654019 	5.23267e-23 -0.00399853 	0.00656795 	8.66214e-23 -0.0039824 	0.00659622 	1.20622e-22 -0.00396665 	0.00662498 	1.54328e-22 -0.00396688 	0.00664614 	8.24336e-23 -0.00396896 	0.00666615 	3.87596e-25 -0.00358857 	0.00683575 	-6.64023e-22 -0.00337895 	0.00718966 	-1.0983e-21 -0.0032276 	0.0076012 	-1.47269e-21 -0.00331688 	0.00789325 	-1.16713e-21 -0.00339009 	0.00812791 	-9.25734e-22 -0.00296949 	0.00848342 	-6.09021e-22 -0.00270667 	0.00879231 	-3.56718e-22 -0.00261503 	0.00899172 	-1.92845e-22 -0.0025329 	0.00921642 	-2.41568e-23 -0.00266386 	0.00957333 	1.6216e-23 -0.00249791 	0.00981699 	1.31744e-24 -0.00244959 	0.00992448 	0 -0.00241405 	0.010023 	0 -0.00238006 	0.0101264 	0 -0.00233011 	0.0102927 	0 -0.00228867 	0.01044 	0 -0.00224985 	0.010596 	0 -0.00221354 	0.0107603 	0 -0.00217966 	0.0109326 	0 -0.00224108 	0.0108814 	0 -0.00199989 	0.010979 	0 -0.00192816 	0.0113198 	0 -0.00186536 	0.0116942 	0 -0.00187361 	0.0119151 	0 -0.00203419 	0.0116935 	0 -0.00171836 	0.0118421 	0 -0.00147609 	0.0121327 	0 -0.00142997 	0.012645 	0 -0.00161714 	0.0124279 	0 -0.00180381 	0.0120941 	0 -0.00146805 	0.012371 	0 -0.00115034 	0.0127791 	0 -0.00111942 	0.0128848 	0 -0.00134933 	0.0125298 	0 -0.00155951 	0.0120761 	0 -0.00120838 	0.0124969 	0 -0.000878129 	0.0130906 	0 -0.000836007 	0.0127297 	0 -0.0010873 	0.0122866 	0 -0.00131709 	0.0117106 	0 -0.000955489 	0.0122871 	0 -0.000715468 	0.0126374 	0 -0.000690882 	0.0122031 	0 -0.00083298 	0.0116739 	0 -0.00107832 	0.0109791 	0 -0.00071145 	0.0117189 	0 -0.000574836 	0.0117239 	0 -0.000553275 	0.0112841 	0 -0.000598832 	0.0107699 	0 -0.000855198 	0.00996667 	0 -0.000488386 	0.0108727 	0 -0.000446753 	0.0105306 	0 -0.000428258 	0.0100947 	0 -0.000409764 	0.00965875 	0 -0.000657167 	0.00877356 	0 -0.000349147 	0.00952976 	0 -0.00033362 	0.00910594 	0 -0.000318092 	0.00868212 	0 -0.000302564 	0.0082583 	0 -0.000482133 	0.00737729 	0 -0.000248461 	0.00785637 	0 -0.000235635 	0.00745083 	0 -0.00022281 	0.00704529 	0 -0.000209985 	0.00663975 	0 -0.000332842 	0.00582278 	2.87936e-37 -0.000165335 	0.00602461 	0 -0.00015477 	0.00563963 	0 -0.000144205 	0.00525465 	0 -0.00013364 	0.00486967 	0 -0.000210195 	0.0041626 	2.90766e-40 -9.92589e-05 	0.00409072 	0 -9.03211e-05 	0.00372237 	0 -8.13833e-05 	0.00335401 	0 -7.24454e-05 	0.00298566 	0 -0.00011058 	0.00241871 	-1.01902e-37 -5.0435e-05 	0.00224944 	0 -4.42466e-05 	0.00197343 	0 -3.80581e-05 	0.00169742 	0 -3.18697e-05 	0.00142142 	0 -2.80034e-05 	0.000644465 	0 -1.34554e-05 	0.000598441 	0 -1.17136e-05 	0.000520973 	0 -9.97179e-06 	0.000443504 	0 -8.22998e-06 	0.000366036 	0 0 	0 	0
-0.0292915 	4.47924e-05 	0 -0.0295105 	0.000180035 	0 -0.0296179 	0.000286195 	-7.43068e-25 -0.0295959 	0.000360236 	-2.30667e-24 -0.0294095 	0.00048631 	-1.90164e-23 -0.029094 	0.00065651 	-4.85201e-23 -0.0292247 	0.000731773 	-2.39972e-22 -0.0292831 	0.000804916 	-3.58224e-22 -0.0292255 	0.000874612 	-3.6457e-22 -0.0289474 	0.00103525 	-2.47775e-22 -0.0285691 	0.00124587 	-6.53383e-23 -0.028613 	0.00126665 	-8.58581e-23 -0.02863 	0.00129725 	-1.02393e-22 -0.0285423 	0.00136364 	-1.0418e-22 -0.0281504 	0.00158083 	-6.46657e-23 -0.0277332 	0.00182843 	-1.77955e-23 -0.027698 	0.00180317 	-1.78449e-23 -0.0276598 	0.00177756 	-1.78897e-23 -0.0275065 	0.00186247 	-3.83532e-23 -0.0270364 	0.00213759 	-5.46095e-23 -0.026605 	0.00241863 	-7.0574e-23 -0.026503 	0.00235813 	-2.4158e-22 -0.0263945 	0.00229661 	-4.12666e-22 -0.0260925 	0.00241627 	-3.99508e-22 -0.0256289 	0.00271941 	-2.02495e-22 -0.025207 	0.00303052 	-4.96249e-24 -0.0250533 	0.00294725 	1.48574e-22 -0.0248916 	0.00286241 	3.0205e-22 -0.0243794 	0.00302701 	3.14667e-22 -0.0239403 	0.00333642 	2.31182e-22 -0.0235492 	0.00367421 	1.35359e-22 -0.0233598 	0.00358153 	2.69897e-22 -0.0229761 	0.00364251 	3.0478e-22 -0.0224751 	0.00381643 	2.6959e-22 -0.0220024 	0.00399987 	2.33229e-22 -0.0216585 	0.00435945 	9.01144e-23 -0.0214537 	0.00432268 	8.25379e-23 -0.0210601 	0.0044651 	1.12778e-22 -0.0206849 	0.00461477 	1.43518e-22 -0.0203289 	0.00477204 	1.74781e-22 -0.0200842 	0.00489248 	1.9797e-22 -0.019988 	0.00494622 	1.99858e-22 -0.0198939 	0.00500077 	2.01684e-22 -0.0198019 	0.00505614 	2.03445e-22 -0.0197119 	0.00511235 	2.05141e-22 -0.0195575 	0.00521674 	2.132e-22 -0.0190588 	0.0053651 	1.93215e-22 -0.0186417 	0.00557765 	1.97454e-22 -0.018256 	0.00580529 	1.99351e-22 -0.0178264 	0.00610592 	2.18442e-22 -0.0172571 	0.0065641 	2.77028e-22 -0.0167737 	0.00668621 	1.57136e-22 -0.0163205 	0.00682659 	3.64066e-23 -0.0157678 	0.00708563 	0 -0.0153196 	0.0075149 	3.93383e-23 -0.0148941 	0.00801899 	7.96698e-23 -0.014752 	0.00808938 	3.41409e-23 -0.0146014 	0.00817308 	0 -0.0144159 	0.00829012 	0 -0.0142378 	0.00841245 	0 -0.0140943 	0.00852 	0 -0.0137696 	0.00877608 	0 -0.0134682 	0.00905131 	0 -0.0131909 	0.00934597 	0 -0.0128532 	0.00967427 	0 -0.0124809 	0.0100863 	0 -0.0121344 	0.010346 	0 -0.011821 	0.0106356 	0 -0.0114935 	0.0109355 	0 -0.011187 	0.0112607 	0 -0.0109935 	0.0115156 	0 -0.0107732 	0.0117835 	0 -0.0105668 	0.0120658 	0 -0.0103578 	0.0123335 	-1.73699e-23 -0.0101493 	0.0125921 	-4.85389e-23 -0.00990498 	0.0129322 	-8.74717e-23 -0.00965739 	0.0132278 	-9.34259e-23 -0.00943174 	0.0135483 	-1.0041e-22 -0.00923271 	0.0138755 	-1.29832e-22 -0.00908042 	0.0141327 	-2.72708e-22 -0.00896415 	0.014366 	-3.943e-22 -0.00844939 	0.0149664 	-6.11487e-22 -0.00799467 	0.0156223 	-7.94756e-22 -0.00767122 	0.0160926 	-5.12428e-22 -0.00738259 	0.0166117 	-2.34891e-22 -0.00719236 	0.0172973 	1.25687e-22 -0.00712299 	0.0174495 	2.21894e-22 -0.00706518 	0.0175721 	2.51205e-22 -0.00701746 	0.0176684 	2.21525e-22 -0.00697066 	0.0177661 	1.92184e-22 -0.00691845 	0.0178789 	1.59174e-22 -0.00668269 	0.0183636 	1.47208e-22 -0.00647071 	0.0188883 	1.36584e-22 -0.00628112 	0.0194503 	1.27225e-22 -0.00620919 	0.0199122 	1.30825e-22 -0.0063195 	0.0201312 	1.55085e-22 -0.00576047 	0.0207563 	9.76025e-23 -0.00523502 	0.0214683 	4.11564e-23 -0.00514802 	0.0222244 	1.76301e-22 -0.0053683 	0.0225801 	3.65623e-22 -0.00556645 	0.022895 	5.40497e-22 -0.00499472 	0.0237611 	2.40516e-22 -0.00453373 	0.0245904 	0 -0.00443149 	0.0248974 	0 -0.0045385 	0.025262 	2.96235e-25 -0.0048038 	0.0256329 	8.18228e-25 -0.00422477 	0.0267589 	3.7365e-26 -0.00410149 	0.0271437 	0 -0.00400601 	0.0275144 	0 -0.00391563 	0.0279092 	0 -0.00405027 	0.0283062 	-1.24795e-22 -0.00378858 	0.0289506 	0 -0.00372635 	0.0292078 	0 -0.00366619 	0.029476 	0 -0.00360807 	0.0297552 	0 -0.00352092 	0.0302049 	0 -0.00349822 	0.0303363 	0 -0.00347585 	0.0304695 	0 -0.00345382 	0.0306046 	0 -0.00343213 	0.0307415 	0 -0.00345315 	0.030703 	0 -0.00331013 	0.031155 	0 -0.00322175 	0.0316182 	0 -0.00313775 	0.0321085 	0 -0.00305795 	0.0326249 	0 -0.0031719 	0.0322951 	0 -0.00287369 	0.0329587 	0 -0.0027887 	0.0334773 	0 -0.00270771 	0.0340238 	0 -0.00263808 	0.0345594 	0 -0.0028808 	0.0335735 	0 -0.00251399 	0.0344795 	0 -0.00237605 	0.035122 	0 -0.00229763 	0.035715 	0 -0.00234176 	0.0356895 	0 -0.00258795 	0.0345506 	0 -0.0022264 	0.0356207 	0 -0.00199117 	0.0365349 	0 -0.00191589 	0.037163 	0 -0.00205879 	0.0365558 	0 -0.00230503 	0.03527 	0 -0.00195346 	0.0364977 	0 -0.00164571 	0.037746 	7.5714e-38 -0.00157571 	0.0383979 	6.4166e-37 -0.00180136 	0.0372144 	1.20918e-36 -0.00204586 	0.0357904 	1.76984e-36 -0.00170808 	0.0371655 	1.145e-36 -0.00137776 	0.0386753 	5.26437e-37 -0.00133104 	0.0391416 	7.78312e-40 -0.00158087 	0.0376862 	1.65635e-39 -0.00182458 	0.0361332 	2.52398e-39 -0.00150304 	0.0376438 	1.57013e-39 -0.00118828 	0.0392926 	6.2543e-40 -0.00115836 	0.0395612 	-3.89673e-37 -0.00141223 	0.0379913 	-9.63016e-37 -0.0016603 	0.0363157 	-1.53e-36 -0.00135573 	0.0379518 	-9.12884e-37 -0.00105744 	0.0397286 	-3.01415e-37 -0.00104628 	0.0398331 	0 -0.00131594 	0.038152 	0 -0.00157957 	0.036352 	0 -0.00129098 	0.0381109 	0 -0.00100852 	0.0400142 	0 -0.00101299 	0.0399602 	0 -0.0013191 	0.0381588 	0 -0.00161793 	0.0362141 	0 -0.00134339 	0.0381109 	0 -0.00107549 	0.0401595 	0 -0.00108089 	0.0399012 	0 -0.00145583 	0.0379444 	0 -0.0018201 	0.0357992 	0 -0.00155931 	0.0378861 	0 -0.00130754 	0.0401303 	0 -0.00128619 	0.0394751 	0 -0.00175723 	0.0373224 	0 -0.00222786 	0.0348533 	0 -0.0019882 	0.0372593 	0 -0.0017991 	0.0390265 	0 -0.00175214 	0.0380077 	0 -0.00220039 	0.0357695 	0 -0.00282167 	0.0327313 	0 -0.00263093 	0.0357451 	0 -0.00248394 	0.0364137 	0 -0.00236726 	0.0347031 	0 -0.00257696 	0.0322724 	0 -0.00337223 	0.0282256 	0 -0.00330232 	0.0324637 	0 -0.00302893 	0.0302555 	0 -0.00273002 	0.0272697 	0 -0.00243111 	0.024284 	0 -0.00308626 	0.0189518 	0 -0.00298647 	0.0215074 	0 -0.00234759 	0.0169064 	0 -0.0017087 	0.0123054 	0 -0.00106981 	0.00770434 	0 -6.9627e-06 	3.3435e-05 	0 -7.3351e-06 	4.25922e-05 	0 -5.80853e-06 	3.3728e-05 	0 -4.28196e-06 	2.48637e-05 	0 -2.75538e-06 	1.59995e-05 	0 0 	0 	0
-0.0425662 	5.2507e-05 	0 -0.0425347 	0.000261535 	-2.15496e-23 -0.0424525 	0.000491498 	-4.92105e-23 -0.0423907 	0.000721973 	-7.70193e-23 -0.0423493 	0.000952957 	-1.04976e-22 -0.0422845 	0.00117473 	-1.33344e-22 -0.0421379 	0.00136782 	-1.65119e-22 -0.041954 	0.00158365 	-1.66929e-22 -0.0417896 	0.00180099 	-1.67903e-22 -0.041645 	0.00201984 	-1.68032e-22 -0.0415991 	0.00210102 	-1.67766e-22 -0.0415854 	0.00212919 	-1.68248e-22 -0.0415721 	0.00215738 	-1.68725e-22 -0.0415592 	0.00218561 	-1.69197e-22 -0.0415465 	0.00221386 	-1.69663e-22 -0.0415243 	0.00224697 	-1.71027e-22 -0.0412499 	0.0024518 	-1.41072e-22 -0.0409909 	0.00265813 	-1.11134e-22 -0.040752 	0.0028671 	-8.09822e-23 -0.0405335 	0.00307875 	-5.06139e-23 -0.0402229 	0.00335187 	-2.56457e-23 -0.0399126 	0.00354539 	-2.12492e-23 -0.0395931 	0.0037463 	-1.30821e-23 -0.0392938 	0.00395088 	-4.83231e-24 -0.0390152 	0.00415919 	3.50184e-24 -0.0384961 	0.00451615 	2.22033e-23 -0.0381393 	0.00467027 	1.88964e-22 -0.0377823 	0.00487244 	2.28898e-22 -0.0374463 	0.00507946 	2.69975e-22 -0.037032 	0.00535042 	2.49378e-22 -0.0363972 	0.00577544 	7.53115e-23 -0.0359831 	0.00590673 	4.73958e-23 -0.0355925 	0.006061 	2.88408e-23 -0.0352439 	0.00627866 	4.05295e-23 -0.0345968 	0.00670608 	7.20066e-23 -0.0339758 	0.00715906 	1.03683e-22 -0.0335366 	0.00728876 	5.63902e-23 -0.0331149 	0.00742514 	8.90334e-24 -0.032461 	0.00773751 	0 -0.0318541 	0.00819821 	1.60788e-23 -0.03128 	0.00868723 	3.20326e-23 -0.0308484 	0.00883451 	4.85663e-24 -0.0302074 	0.00915465 	0 -0.029553 	0.00952914 	0 -0.0289405 	0.00992527 	0 -0.028395 	0.010327 	0 -0.0283865 	0.0103346 	0 -0.0283781 	0.0103423 	0 -0.0283697 	0.0103499 	0 -0.0283597 	0.0103584 	0 -0.0283467 	0.0103685 	0 -0.0276921 	0.0107601 	0 -0.027084 	0.0111819 	0 -0.0265203 	0.0116314 	0 -0.0259036 	0.0121576 	0 -0.0251301 	0.0128444 	0 -0.0244995 	0.013234 	0 -0.0238997 	0.0136661 	0 -0.0231645 	0.0142076 	0 -0.0224956 	0.0147967 	0 -0.0218108 	0.0155243 	0 -0.0218097 	0.0155258 	0 -0.0218086 	0.0155274 	0 -0.0218074 	0.0155289 	0 -0.0218058 	0.0155305 	0 -0.0218043 	0.0155321 	0 -0.021047 	0.0161529 	0 -0.0203584 	0.0168374 	0 -0.0197243 	0.0175803 	1.41842e-25 -0.0190194 	0.0183405 	1.59841e-24 -0.0181924 	0.0194279 	3.51854e-24 -0.0181024 	0.0195482 	3.52722e-24 -0.0180144 	0.0196704 	3.53737e-24 -0.017923 	0.0197851 	-2.08826e-24 -0.0178261 	0.0198888 	-1.55759e-23 -0.0177358 	0.0199889 	-2.83842e-23 -0.0169629 	0.0208207 	-1.88157e-23 -0.0162688 	0.0217419 	-5.74045e-24 -0.0156205 	0.0225961 	-4.23525e-23 -0.0150585 	0.023461 	-1.20628e-22 -0.014671 	0.0243278 	-2.14792e-22 -0.0145756 	0.0245269 	-2.83975e-22 -0.0144819 	0.0247222 	-3.37442e-22 -0.0143874 	0.0248736 	-2.71205e-22 -0.0142947 	0.025027 	-2.05425e-22 -0.0141941 	0.025199 	-1.33159e-22 -0.0137522 	0.0259071 	2.11683e-22 -0.0133517 	0.0266671 	5.45179e-22 -0.0129908 	0.027476 	8.67663e-22 -0.0127546 	0.0280578 	6.01761e-22 -0.0125901 	0.0285297 	2.15769e-22 -0.0119511 	0.0295874 	-1.07135e-22 -0.0113655 	0.0307276 	-4.34433e-22 -0.0109935 	0.0314181 	-4.55391e-23 -0.0107673 	0.0321772 	7.05752e-22 -0.0106754 	0.0329141 	1.65884e-21 -0.0103295 	0.0337601 	2.31216e-21 -0.0100938 	0.0343301 	2.07044e-21 -0.00989638 	0.0348322 	1.57652e-21 -0.00970871 	0.0353525 	1.09299e-21 -0.00944872 	0.0361363 	4.02645e-22 -0.00936257 	0.0364257 	3.01775e-22 -0.00927877 	0.0367196 	2.01153e-22 -0.00919726 	0.0370181 	1.00777e-22 -0.00912109 	0.0373153 	2.84832e-24 -0.00918348 	0.0373665 	3.01219e-24 -0.00868581 	0.0382798 	-8.82586e-23 -0.00841872 	0.0392537 	-2.98894e-22 -0.00817328 	0.0402739 	-5.13457e-22 -0.00807475 	0.0410801 	-7.31431e-22 -0.00831174 	0.0412325 	-9.44169e-22 -0.00764646 	0.0423786 	-6.19423e-22 -0.00706392 	0.0436037 	-1.4968e-22 -0.00688465 	0.0447514 	1.24932e-21 -0.00717752 	0.0449133 	2.36129e-21 -0.00745379 	0.0450412 	3.43541e-21 -0.00678367 	0.0464132 	1.91634e-21 -0.00614015 	0.0478872 	4.18064e-22 -0.00598331 	0.0485148 	6.76158e-25 -0.00630572 	0.04864 	3.61214e-24 -0.0066122 	0.0487262 	6.46824e-24 -0.0059421 	0.0503173 	2.68737e-24 -0.00544437 	0.0516244 	0 -0.00533871 	0.0520147 	0 -0.00547349 	0.0522236 	-3.01094e-21 -0.00579987 	0.0522482 	-8.46175e-21 -0.00513521 	0.0540443 	-1.63063e-21 -0.00489829 	0.0547859 	0 -0.00479612 	0.0552019 	0 -0.00469659 	0.0556384 	0 -0.00503313 	0.0555811 	-1.07068e-23 -0.00447003 	0.0572833 	0 -0.00437005 	0.0576956 	0 -0.00427241 	0.0581288 	0 -0.00417705 	0.0585825 	0 -0.00432498 	0.0586826 	2.51657e-21 -0.00396675 	0.0599012 	3.27086e-37 -0.00387414 	0.0603234 	9.57601e-37 -0.00378351 	0.0607657 	1.58702e-36 -0.00369481 	0.0612278 	2.21535e-36 -0.00369493 	0.0615403 	2.95523e-36 -0.00354604 	0.0621373 	3.21522e-36 -0.00349375 	0.0624079 	2.68249e-36 -0.00344212 	0.0626861 	2.15262e-36 -0.00339115 	0.062972 	1.62558e-36 -0.00332373 	0.0633651 	9.23324e-37 -0.00329978 	0.0635122 	7.29898e-37 -0.00327597 	0.0636611 	5.3656e-37 -0.00325231 	0.0638116 	3.43308e-37 -0.00322879 	0.0639639 	1.50143e-37 -0.00322936 	0.0639528 	4.46723e-39 -0.00314464 	0.0644562 	-5.09543e-37 -0.00308333 	0.0648871 	-1.07189e-36 -0.00302319 	0.0653331 	-1.63502e-36 -0.00296421 	0.0657938 	-2.19892e-36 -0.00299818 	0.065579 	-2.76288e-36 -0.00287588 	0.0663972 	-2.14576e-36 -0.00284702 	0.0668367 	-1.53e-36 -0.00281883 	0.0672853 	-9.14636e-37 -0.00279128 	0.067743 	-2.99671e-37 -0.00291111 	0.0669958 	0 -0.00275978 	0.0681641 	0 -0.00278405 	0.0686298 	0 -0.00280824 	0.0690944 	0 -0.00283236 	0.0695579 	0 -0.00304869 	0.0682391 	0 -0.00286038 	0.0698131 	0 -0.00297048 	0.070339 	0 -0.00307918 	0.0708467 	0 -0.0031865 	0.0713365 	0 -0.00352406 	0.0693142 	0 -0.00326327 	0.0714011 	0 -0.00350712 	0.0720551 	0 -0.00374978 	0.0726538 	0 -0.00402121 	0.0727571 	0 -0.00448294 	0.0701326 	0 -0.00424328 	0.0725386 	0 -0.00450003 	0.073839 	0 -0.00494989 	0.0746112 	0 -0.00546428 	0.0736533 	0 -0.0060648 	0.0703513 	0 -0.00587405 	0.0733651 	0 -0.0060021 	0.0758251 	0 -0.0067595 	0.0769184 	0 -0.00752689 	0.0737336 	0 -0.00826392 	0.069169 	0 -0.008194 	0.073407 	0 -0.00814543 	0.0778281 	0 -0.00896808 	0.0779721 	0 -0.00980126 	0.0716171 	0 -0.0105377 	0.0647088 	0 -0.010739 	0.0714728 	0 -0.0109951 	0.0785837 	0 -0.0103818 	0.0747653 	0 -0.010853 	0.0645085 	0 -0.0111293 	0.053443 	0 -0.0118461 	0.0656158 	0 -0.0112687 	0.0654334 	0 -0.00976212 	0.056685 	0 -0.00825551 	0.0479367 	0 -0.00695462 	0.0301939 	0 -0.00763386 	0.0446682 	0 -0.00620151 	0.036287 	0 -0.00476916 	0.0279059 	0 -0.00333681 	0.0195247 	0 0 	0 	0