# vtk DataFile Version 2.0
track0
ASCII
DATASET POLYDATA
POINTS 38299 float
0.05 8.57988e-20 2.57396e-18
0.05 0.00217391 -1.05592e-17
0.05 0.00217391 -1.05592e-17
0.05 0.00217391 -1.05592e-17
0.05 0.00217391 -1.05592e-17
0.05 0.00217391 -1.05592e-17
0.05 0.00217391 -1.38778e-17
0.0493333 0.00217569 -5.27356e-18
0.0486667 0.00217836 -6.10623e-18
0.048 0.00218248 -1.09718e-17
0.0473334 0.00218969 -9.89156e-18
0.0466667 0.00219949 -1.249e-17
0.046 0.0022118 -8.74301e-18
0.0453333 0.00222344 -1.16573e-17
0.0446667 0.00223562 -8.80168e-18
0.044 0.00225074 -1.34565e-17
0.0433333 0.00226934 -1.80411e-17
0.0426667 0.00229184 -1.56819e-17
0.0419999 0.00231229 -1.61681e-17
0.0413332 0.00233297 -1.50541e-17
0.0406666 0.00235654 -1.64144e-17
0.04 0.00238406 -1.80411e-17
0.0393333 0.00241677 -1.22125e-17
0.0386665 0.00244628 -1.8596e-17
0.0379997 0.00247652 -1.51663e-17
0.0373331 0.00250971 -2.09137e-17
0.0366667 0.00254672 -2.498e-17
0.036 0.00259011 -2.26208e-17
0.0353331 0.00262937 -1.6512e-17
0.0346663 0.00267091 -2.52189e-17
0.0339997 0.0027156 -2.97848e-17
0.0333333 0.00276357 -3.05311e-17
0.0326667 0.00281868 -3.28904e-17
0.0319998 0.00287069 -3.59431e-17
0.0313331 0.00292609 -3.93976e-17
0.0306668 0.00298502 -3.83275e-17
0.03 0.00304769 -3.88578e-17
0.0294456 0.00310482 -3.23834e-17
0.0288911 0.00316164 -3.35417e-17
0.0283369 0.00322117 -3.76685e-17
0.0277831 0.00328348 -4.1245e-17
0.0273599 0.00333333 -3.29628e-17
0.0272212 0.00335024 -3.33091e-17
0.0270826 0.00336734 -4.05943e-17
0.026944 0.00338464 -3.67772e-17
0.0268055 0.00340213 -3.85111e-17
0.0266667 0.00341985 -4.2805e-17
0.026 0.00350777 -4.11976e-17
0.0253338 0.00359892 -4.51333e-17
0.0246682 0.00369487 -4.69789e-17
0.0240034 0.0037958 -4.27492e-17
0.0233333 0.00390287 -4.11941e-17
0.0226667 0.00402819 -4.27905e-17
0.0219994 0.00415026 -4.50755e-17
0.0213331 0.00427774 -4.24641e-17
0.0206681 0.00441132 -4.54329e-17
0.02 0.00456181 -4.10714e-17
0.0193333 0.00473949 -4.21529e-17
0.0186665 0.00491648 -4.33142e-17
0.0179994 0.00509271 -4.25293e-17
0.0173358 0.00528145 -3.91956e-17
0.0166667 0.00550125 -4.44089e-17
0.016048 0.00573433 -3.31491e-17
0.0154303 0.00596971 -3.57013e-17
0.014817 0.00621653 -3.79701e-17
0.0142111 0.00648095 -3.7811e-17
0.0138191 0.00666667 -4.10545e-17
0.0137219 0.00671525 -3.25661e-17
0.0136251 0.00676444 -3.65681e-17
0.0135286 0.00681424 -3.2244e-17
0.0134324 0.00686466 -2.79377e-17
0.0133333 0.00691761 -3.0949e-17
0.0126667 0.00728234 -3.29442e-17
0.0120126 0.00766918 -3.15068e-17
0.0113739 0.00808103 -3.02418e-17
0.0107527 0.00851862 -2.67723e-17
0.01 0.00911013 -1.80411e-17
0.00980205 0.0092881 -2.03222e-17
0.00960595 0.00946812 -2.53835e-17
0.00941174 0.00965016 -2.92251e-17
0.00921946 0.00983425 -2.69298e-17
0.00905 0.01 -2.498e-17
0.00857334 0.0104752 -3.07319e-17
0.00811996 0.0109726 -3.57479e-17
0.00769132 0.0114915 -3.63456e-17
0.00728626 0.012029 -4.18899e-17
0.00666667 0.0129233 -4.30211e-17
0.00661695 0.0130053 -4.03284e-17
0.00656755 0.0130875 -4.04107e-17
0.00651846 0.0131699 -3.77168e-17
0.00646968 0.0132525 -4.13053e-17
0.00642205 0.0133333 -4.30211e-17
0.00603043 0.014 -4.48253e-17
0.00567486 0.0146866 -4.73564e-17
0.00534955 0.015388 -4.8393e-17
0.00505101 0.0161012 -5.66414e-17
0.00481655 0.0166667 -5.31939e-17
0.004542 0.0173333 -5.49205e-17
0.00430624 0.0180147 -5.41917e-17
0.00409685 0.0187046 -5.88738e-17
0.00389794 0.0193976 -5.78185e-17
0.00373438 0.02 -4.84162e-17
0.00365417 0.02029 -5.45536e-17
0.00358095 0.0205818 -5.04443e-17
0.00350993 0.0208742 -4.46349e-17
0.00344066 0.021167 -3.7093e-17
0.00333333 0.0216328 -4.27693e-17
0.00325815 0.0219729 -3.48197e-17
0.00318498 0.0223134 -3.35538e-17
0.00311376 0.0226544 -3.08968e-17
0.00304443 0.0229958 -2.26856e-17
0.00297774 0.0233333 -2.63678e-17
0.0028422 0.024 -1.84575e-17
0.00272082 0.0246694 -1.81844e-17
0.00260681 0.0253401 -2.17774e-17
0.00249962 0.0260119 -1.66543e-17
0.0023975 0.0266667 -1.249e-17
0.00228253 0.0273333 -1.15186e-17
0.00218586 0.0280029 -1.29685e-17
0.00210328 0.0286743 -8.98735e-18
0.00202616 0.0293464 -1.27417e-17
0.00194126 0.03 -1.80411e-17
0.00184216 0.0306667 -1.70697e-17
0.00176252 0.0313359 -1.47148e-17
0.00170142 0.0320072 -1.65811e-17
0.00164239 0.0326786 -1.77842e-17
0.00157139 0.0333333 -1.57881e-17
0.001485 0.034 -1.67463e-17
0.00141947 0.034669 -1.90406e-17
0.00137323 0.0353397 -1.81376e-17
0.00132801 0.0360104 -1.90041e-17
0.00126891 0.0366667 -1.46032e-17
0.00119307 0.0373333 -1.06605e-17
0.00113971 0.0380022 -4.70463e-18
0.00110121 0.038672 -5.42128e-18
0.00106272 0.0393419 -7.3059e-18
0.00101429 0.04 -6.54637e-18
0.000947415 0.0406667 3.97335e-18
0.000905053 0.0413353 3.69625e-19
0.000871359 0.0420045 1.31277e-19
0.000837664 0.0426737 -1.78524e-18
0.000799223 0.0433333 -4.10653e-18
0.000740119 0.044 -2.62032e-18
0.000708071 0.0446685 -5.89455e-18
0.000678533 0.0453371 -4.37785e-18
0.000648995 0.0460058 -9.81058e-19
0.000619799 0.0466667 -1.07466e-17
0.000567501 0.0473333 -8.16153e-18
0.000541584 0.0480015 -2.84223e-18
0.000515668 0.0486698 -3.33582e-18
0.000489751 0.049338 -4.44861e-18
0.000464075 0.05 -2.16062e-18
0.000417711 0.0506667 7.87391e-18
0.000394912 0.0513346 1.05854e-17
0.000372113 0.0520024 6.37971e-18
0.000349314 0.0526703 2.4919e-18
0.000326682 0.0533333 3.6193e-18
0.000285374 0.054 2.02276e-18
0.00026515 0.0546676 -5.15839e-18
0.000244927 0.0553353 -2.64002e-18
0.000224703 0.0560029 2.49314e-18
0.000204598 0.0566667 5.21039e-18
0.000167351 0.0573333 2.9132e-18
0.000149044 0.0580008 4.74911e-18
0.000130737 0.0586682 -2.98635e-18
0.000112429 0.0593357 -4.44483e-18
9.42087e-05 0.06 -8.48356e-18
7.5367e-05 0.0603649 -1.062e-17
6.59126e-05 0.0607302 2.49411e-18
5.64582e-05 0.0610955 7.28155e-18
4.70038e-05 0.0614609 9.29342e-18
0 0.063277 1.95227e-17
0.05 0.00434783 5.94331e-18
0.0493333 0.0043497 -3.08036e-18
0.0486667 0.00435444 -1.00659e-18
0.048 0.00436145 -3.60831e-18
0.0473334 0.0043701 5.12646e-18
0.0466667 0.00438168 5.88694e-18
0.046 0.0043973 6.55481e-18
0.0453334 0.00441444 3.05683e-18
0.0446668 0.0044331 -3.26051e-18
0.0440002 0.00445336 -4.8399e-18
0.0433333 0.00447755 -6.25575e-18
0.0426667 0.00450699 -2.93718e-18
0.042 0.00453675 -6.57252e-19
0.0413334 0.0045671 2.08074e-19
0.0406668 0.00459907 -2.34245e-18
0.04 0.00463668 -1.04972e-17
0.0393333 0.00468081 -9.52983e-18
0.0386666 0.0047243 -1.099e-17
0.0379999 0.00476716 -9.19994e-18
0.0373333 0.00481232 -1.42269e-18
0.0366667 0.00486503 4.99155e-18
0.036 0.00492564 -6.36938e-18
0.0353332 0.00498492 -9.74811e-18
0.0346663 0.00504285 -7.73766e-18
0.0339997 0.00510446 -1.23146e-17
0.0333333 0.00517504 -6.93889e-18
0.0326667 0.00525506 -1.22125e-17
0.0319998 0.00533334 -1.5822e-17
0.0313327 0.00540984 -2.11797e-17
0.0306664 0.00549239 -2.02489e-17
0.03 0.005585 -2.498e-17
0.0293333 0.00568876 -2.53964e-17
0.0286664 0.00579073 -2.93511e-17
0.028 0.00589613 -3.16756e-17
0.0273348 0.0060088 -3.15766e-17
0.0266667 0.00612993 -3.05311e-17
0.026132 0.00623728 -2.27018e-17
0.0255973 0.00634473 -1.97296e-17
0.0250637 0.00645754 -2.41319e-17
0.0245313 0.00657596 -3.0075e-17
0.0241437 0.00666667 -2.63295e-17
0.0239816 0.00670602 -2.67535e-17
0.0238197 0.00674597 -2.99533e-17
0.0236579 0.00678652 -2.69083e-17
0.0234963 0.00682768 -2.66392e-17
0.0233333 0.00686985 -3.64206e-17
0.0226667 0.00704733 -4.08795e-17
0.0220025 0.00723395 -4.25781e-17
0.0213415 0.0074314 -4.0364e-17
0.0206839 0.0076402 -4.21919e-17
0.02 0.0078742 -4.55558e-17
0.0193333 0.00812756 -4.49229e-17
0.0186708 0.00839153 -4.10714e-17
0.0180128 0.00866671 -4.36069e-17
0.0173623 0.0089591 -4.96144e-17
0.0166667 0.00930062 -4.30211e-17
0.0164073 0.00944049 -4.34532e-17
0.0161489 0.00958239 -3.66078e-17
0.0158919 0.00972655 -3.61797e-17
0.0156365 0.00987372 -3.71423e-17
0.0154233 0.01 -3.60822e-17
0.0150053 0.0102533 -3.37286e-17
0.0145935 0.0105166 -3.19359e-17
0.0141883 0.01079 -3.54244e-17
0.0137901 0.0110734 -3.43615e-17
0.0133333 0.0114188 -3.58429e-17
0.0128621 0.0118017 -3.40914e-17
0.0124012 0.012197 -3.83284e-17
0.0119511 0.0126045 -3.72498e-17
0.0115125 0.0130244 -3.82413e-17
0.0112075 0.0133333 -3.8086e-17
0.010966 0.0135879 -3.74077e-17
0.0107302 0.0138477 -3.99087e-17
0.0105001 0.0141127 -3.63112e-17
0.0102757 0.0143824 -3.41005e-17
0.01 0.014728 -3.99569e-17
0.00970646 0.0151158 -3.24078e-17
0.00942172 0.01551 -3.56575e-17
0.00914572 0.0159104 -3.88229e-17
0.00887803 0.0163164 -4.46221e-17
0.00865483 0.0166667 -4.30211e-17
0.0082572 0.0173088 -4.8589e-17
0.00788868 0.017968 -5.49287e-17
0.00754785 0.018642 -5.5434e-17
0.00722625 0.0193254 -5.3727e-17
0.00693053 0.02 -5.4852e-17
0.00687775 0.0201273 -6.33105e-17
0.006826 0.020255 -5.97754e-17
0.00677506 0.0203831 -5.26251e-17
0.00672478 0.0205114 -5.26747e-17
0.00666667 0.0206618 -5.38579e-17
0.00646389 0.0211961 -4.97476e-17
0.00627107 0.0217341 -5.06188e-17
0.00608767 0.0222754 -5.09243e-17
0.00591315 0.0228196 -4.31541e-17
0.0057538 0.0233333 -4.30211e-17
0.00554561 0.024 -4.34375e-17
0.00535941 0.0246731 -4.45585e-17
0.00519359 0.0253516 -4.19557e-17
0.005036 0.026032 -4.0002e-17
0.00488504 0.0266667 -3.94919e-17
0.00472279 0.0273333 -4.64892e-17
0.00458113 0.0280047 -4.93761e-17
0.00445696 0.0286795 -5.05365e-17
0.00433681 0.029355 -4.971e-17
0.00421989 0.03 -4.38037e-17
0.0040938 0.0306667 -4.70631e-17
0.00398661 0.0313366 -5.22915e-17
0.00388473 0.0320074 -5.365e-17
0.00378633 0.0326787 -5.16455e-17
0.00369371 0.0333333 -4.50091e-17
0.00362164 0.0338276 -4.82293e-17
0.00355636 0.0343227 -4.17449e-17
0.00349285 0.0348181 -4.49774e-17
0.00343104 0.0353137 -4.97886e-17
0.00333333 0.0361192 -4.30211e-17
0.00332063 0.0362287 -4.58178e-17
0.00330801 0.0363382 -4.58389e-17
0.00329545 0.0364477 -4.86353e-17
0.00328298 0.0365572 -4.58806e-17
0.00327058 0.0366667 -4.996e-17
0.00319473 0.0373333 -5.03764e-17
0.00312241 0.0380004 -5.66914e-17
0.00305285 0.0386677 -4.90394e-17
0.00298593 0.0393354 -4.91508e-17
0.00292187 0.04 -4.85723e-17
0.00285499 0.0406667 -5.17641e-17
0.00279502 0.041334 -4.76713e-17
[...]
POINT_DATA 38299
 FIELD attributes 1
U 3 38299 float
-5.87655e-19 	-1.24982e-21 	0
-0.0138107 	3.67903e-05 	0 -0.0138107 	3.67903e-05 	0 -0.0138107 	3.67903e-05 	0 -0.0138107 	3.67903e-05 	0 -0.0138107 	3.67903e-05 	0 -0.0138107 	3.67903e-05 	0 -0.014132 	5.66096e-05 	0 -0.0143587 	8.87306e-05 	-6.22756e-25 -0.014318 	0.000154798 	-2.96486e-24 -0.0140735 	0.00020697 	-5.31766e-24 -0.0137603 	0.000254031 	-7.67983e-24 -0.0140739 	0.000245775 	2.97939e-22 -0.0142494 	0.000260209 	5.00731e-22 -0.0141553 	0.000321103 	4.93942e-22 -0.0139302 	0.000388669 	2.95104e-22 -0.0136424 	0.000460371 	-1.18188e-23 -0.0139361 	0.000427621 	1.4038e-22 -0.0140266 	0.00043497 	2.32855e-22 -0.013889 	0.000491011 	2.53586e-22 -0.0136934 	0.00056537 	2.02868e-22 -0.0134411 	0.000659446 	7.62404e-23 -0.0137051 	0.00060656 	5.59669e-23 -0.0136829 	0.000620576 	4.85904e-23 -0.0135142 	0.000672855 	4.85381e-23 -0.0133417 	0.000740994 	5.36934e-23 -0.0131321 	0.000854625 	7.4184e-23 -0.0133593 	0.000786463 	5.60283e-23 -0.0132056 	0.000822669 	3.55434e-23 -0.0130187 	0.000872878 	1.48535e-23 -0.0128464 	0.000924666 	-5.7488e-24 -0.0126864 	0.00104879 	-9.66391e-24 -0.0127916 	0.000997518 	-7.77251e-23 -0.0125852 	0.0010458 	-6.66454e-23 -0.0123926 	0.00109597 	-5.51058e-23 -0.0122146 	0.00114809 	-4.30872e-23 -0.0120807 	0.00124482 	7.61849e-24 -0.0120454 	0.00123453 	-3.47758e-23 -0.0118765 	0.00127564 	-2.47965e-23 -0.0117172 	0.00131834 	-1.43149e-23 -0.0115678 	0.00136268 	-3.31324e-24 -0.0114616 	0.00139788 	5.50877e-24 -0.0114292 	0.00141001 	8.56705e-24 -0.0113975 	0.00142226 	1.16618e-23 -0.0113665 	0.00143462 	1.47932e-23 -0.0113362 	0.0014471 	1.79617e-23 -0.0112726 	0.0014866 	6.73678e-24 -0.0110589 	0.00151312 	5.23422e-24 -0.0108742 	0.00156762 	6.10188e-24 -0.0107039 	0.00162507 	6.9451e-24 -0.0105486 	0.00168558 	7.76284e-24 -0.0102167 	0.00192059 	4.15953e-23 -0.00991058 	0.00181295 	3.09998e-22 -0.00974164 	0.00186393 	3.77137e-22 -0.00959375 	0.00192701 	4.3569e-22 -0.00935045 	0.00210626 	3.57728e-22 -0.00903404 	0.00240774 	1.4847e-22 -0.00876454 	0.00232617 	3.71937e-22 -0.00849347 	0.00224393 	5.95389e-22 -0.00821605 	0.00233669 	6.08104e-22 -0.00796025 	0.0026148 	4.12921e-22 -0.0077465 	0.00291869 	2.18821e-22 -0.00754485 	0.00287473 	3.97619e-22 -0.00728197 	0.00293067 	4.28253e-22 -0.00700134 	0.00305548 	3.70729e-22 -0.00675241 	0.0031989 	3.10135e-22 -0.00661151 	0.003306 	2.68255e-22 -0.00657256 	0.00333845 	2.57775e-22 -0.00653466 	0.00337161 	2.47195e-22 -0.00649784 	0.00340546 	2.36513e-22 -0.00644945 	0.0034486 	2.35404e-22 -0.00639454 	0.00349845 	2.38976e-22 -0.00603681 	0.00357023 	1.60683e-22 -0.00578947 	0.00373364 	8.87378e-23 -0.00557128 	0.00392399 	1.78587e-23 -0.00531752 	0.00417898 	2.3878e-23 -0.00505273 	0.00454284 	2.91584e-23 -0.00499361 	0.00458407 	1.68405e-23 -0.00493761 	0.00462823 	4.51646e-24 -0.00488329 	0.00467539 	2.65191e-23 -0.00483133 	0.00472556 	6.83812e-23 -0.00478795 	0.00477291 	1.05665e-22 -0.0045115 	0.00494998 	1.05832e-22 -0.00426449 	0.00516256 	1.00931e-22 -0.00405373 	0.0053793 	9.09309e-23 -0.00387724 	0.00559617 	7.62801e-23 -0.00363342 	0.005993 	4.58588e-23 -0.00361806 	0.00601939 	7.54495e-23 -0.00360306 	0.00604625 	1.04775e-22 -0.00358841 	0.00607357 	1.33837e-22 -0.00358827 	0.00609319 	7.22473e-23 -0.00359008 	0.00611151 	3.00974e-25 -0.00324887 	0.00627327 	-5.70369e-22 -0.00306011 	0.00659814 	-9.39374e-22 -0.00292019 	0.00697627 	-1.266e-21 -0.00300077 	0.00723709 	-1.00123e-21 -0.00306692 	0.00744737 	-7.91e-22 -0.00268926 	0.00777194 	-5.23417e-22 -0.00244617 	0.00805965 	-3.03453e-22 -0.00236472 	0.00823869 	-1.59427e-22 -0.0022915 	0.00843991 	-1.13307e-23 -0.0024256 	0.00876983 	4.10621e-24 -0.00226094 	0.00901135 	3.15746e-25 -0.00221447 	0.0091174 	0 -0.0021802 	0.00921573 	0 -0.00214755 	0.00931913 	0 -0.00209817 	0.00949124 	0 -0.00206569 	0.00961404 	0 -0.00203505 	0.00974296 	0 -0.00200619 	0.00987781 	0 -0.00197906 	0.0100184 	0 -0.00202835 	0.00997631 	0 -0.00182872 	0.0100849 	0 -0.00176574 	0.0103879 	0 -0.00171044 	0.01072 	0 -0.00170718 	0.0109461 	0 -0.00185275 	0.0107435 	0 -0.00157066 	0.0108792 	0 -0.00137185 	0.0111535 	0 -0.0013317 	0.0116068 	0 -0.00148731 	0.0114487 	0 -0.00165712 	0.0111473 	0 -0.00135584 	0.0113948 	0 -0.00107034 	0.0117574 	0 -0.00104709 	0.0119105 	0 -0.00125694 	0.011591 	0 -0.00144919 	0.0111838 	0 -0.00113197 	0.0115574 	0 -0.000833149 	0.0120829 	0 -0.000796139 	0.0118088 	0 -0.00102763 	0.0114117 	0 -0.00123962 	0.0108957 	0 -0.000910004 	0.0114069 	0 -0.000676573 	0.0117735 	0 -0.000653722 	0.0113758 	0 -0.000801831 	0.0108968 	0 -0.00103068 	0.010274 	0 -0.000692522 	0.0109314 	0 -0.000552857 	0.0109796 	0 -0.000532274 	0.0105708 	0 -0.000587933 	0.0100891 	0 -0.000830533 	0.00936806 	0 -0.000487875 	0.0101769 	0 -0.000437105 	0.00989447 	0 -0.00041887 	0.00948171 	0 -0.000400636 	0.00906895 	0 -0.000648596 	0.00826789 	0 -0.000348393 	0.00898275 	0 -0.000332483 	0.00857253 	0 -0.000316573 	0.00816231 	0 -0.000300662 	0.00775209 	0 -0.000482878 	0.00694326 	0 -0.000251964 	0.00738125 	0 -0.000238212 	0.00697838 	0 -0.00022446 	0.00657551 	0 -0.000210707 	0.00617264 	0 -0.000335405 	0.00541302 	2.68946e-37 -0.000168424 	0.00556019 	0 -0.000156488 	0.00516616 	0 -0.000144553 	0.00477213 	0 -0.000132617 	0.0043781 	0 -0.000207535 	0.00371465 	2.71686e-40 -9.76216e-05 	0.00355913 	0 -8.69423e-05 	0.00316979 	0 -7.62631e-05 	0.00278044 	0 -6.55839e-05 	0.00239109 	0 -9.59499e-05 	0.00185843 	-7.74336e-38 -4.49525e-05 	0.0017369 	0 -3.93134e-05 	0.00151901 	0 -3.36744e-05 	0.00130113 	0 -2.80353e-05 	0.00108325 	0 0 	0 	0
-0.0268178 	7.52264e-05 	0 -0.0270212 	0.000192234 	0 -0.02712 	0.000285287 	-1.09014e-24 -0.0270972 	0.000351668 	-3.39329e-24 -0.0269164 	0.000467181 	-2.80264e-23 -0.0266132 	0.000623805 	-7.12635e-23 -0.0267377 	0.000687183 	-3.51536e-22 -0.0267941 	0.000750305 	-5.26624e-22 -0.0267394 	0.000812842 	-5.3662e-22 -0.0264731 	0.00096023 	-3.70903e-22 -0.0261137 	0.00115293 	-1.14371e-22 -0.0261608 	0.00116797 	-2.11399e-22 -0.0261824 	0.00119219 	-2.85201e-22 -0.0261008 	0.00125188 	-2.68418e-22 -0.0257284 	0.00145109 	-1.30906e-22 -0.0253341 	0.00167676 	2.64803e-23 -0.025311 	0.00165127 	2.01819e-22 -0.0252848 	0.00162541 	3.77208e-22 -0.0251406 	0.00170291 	3.75894e-22 -0.0246987 	0.00195305 	2.14388e-22 -0.0242918 	0.00220858 	5.26584e-23 -0.0242093 	0.00215233 	7.04839e-24 -0.0241205 	0.00209511 	-3.85309e-23 -0.0238408 	0.00220368 	-4.28618e-23 -0.0234049 	0.00247887 	-7.37694e-24 -0.0230067 	0.00276128 	2.82934e-23 -0.0228778 	0.00268544 	1.17362e-22 -0.0227413 	0.0026082 	2.06398e-22 -0.0222704 	0.00275872 	2.16039e-22 -0.0218579 	0.00303795 	1.61657e-22 -0.0214877 	0.00334428 	9.8191e-23 -0.0213262 	0.00326073 	2.01434e-22 -0.0209783 	0.00331775 	2.28276e-22 -0.02052 	0.00347554 	2.02759e-22 -0.0200871 	0.00364195 	1.76339e-22 -0.0197593 	0.0039668 	6.84315e-23 -0.01958 	0.00393475 	6.3282e-23 -0.0192211 	0.00406372 	8.92719e-23 -0.0188785 	0.00419921 	1.15659e-22 -0.0185532 	0.00434151 	1.42459e-22 -0.0183288 	0.00445058 	1.62336e-22 -0.0182391 	0.00450001 	1.64405e-22 -0.0181513 	0.00455019 	1.66421e-22 -0.0180654 	0.00460113 	1.68383e-22 -0.0179813 	0.00465285 	1.70291e-22 -0.0178367 	0.00474846 	1.77077e-22 -0.0173815 	0.0048839 	1.60658e-22 -0.0169982 	0.0050776 	1.64848e-22 -0.0166432 	0.005285 	1.67071e-22 -0.0162459 	0.00555826 	1.83607e-22 -0.0157171 	0.00597316 	2.32903e-22 -0.015278 	0.00608702 	1.32105e-22 -0.0148662 	0.00621753 	3.05963e-23 -0.0143596 	0.00645446 	0 -0.0139413 	0.00684406 	3.37467e-23 -0.0135422 	0.00730196 	6.83656e-23 -0.0134128 	0.00736765 	2.93344e-23 -0.0132753 	0.00744517 	0 -0.0131044 	0.00755233 	0 -0.0129403 	0.00766432 	0 -0.012808 	0.00776259 	0 -0.0125082 	0.00799743 	0 -0.0122296 	0.00824981 	0 -0.0119728 	0.00852003 	0 -0.0116611 	0.00881927 	0 -0.0113165 	0.00919547 	0 -0.0110013 	0.00943474 	0 -0.0107157 	0.00970096 	0 -0.0104181 	0.00997437 	0 -0.0101387 	0.0102695 	0 -0.00996172 	0.0105004 	0 -0.00975548 	0.0107498 	0 -0.00956231 	0.0110127 	0 -0.00936791 	0.0112612 	-1.08155e-23 -0.00917519 	0.0115012 	-2.9957e-23 -0.00894797 	0.011819 	-5.40265e-23 -0.008729 	0.0120853 	-5.76748e-23 -0.00852885 	0.0123731 	-6.19159e-23 -0.00835156 	0.0126672 	-8.23609e-23 -0.00821723 	0.0128949 	-1.9512e-22 -0.00811366 	0.013102 	-2.91464e-22 -0.00763579 	0.0136597 	-4.60229e-22 -0.0072151 	0.0142674 	-6.00324e-22 -0.00691956 	0.0147035 	-4.05175e-22 -0.00665617 	0.0151849 	-2.12994e-22 -0.00653348 	0.0157601 	2.72859e-24 -0.00645544 	0.0159296 	8.11466e-23 -0.00639124 	0.0160663 	1.09094e-22 -0.00633895 	0.0161741 	9.30878e-23 -0.00628791 	0.0162838 	7.7359e-23 -0.00622958 	0.0164144 	5.92654e-23 -0.00603412 	0.0168347 	6.77039e-23 -0.00585725 	0.0172864 	7.68636e-23 -0.00569797 	0.0177674 	8.66992e-23 -0.0056341 	0.0181655 	9.96196e-23 -0.00573042 	0.0183498 	1.16709e-22 -0.00523038 	0.0189087 	7.45257e-23 -0.00477861 	0.0195514 	4.61181e-23 -0.00469415 	0.0202675 	2.18214e-22 -0.00489554 	0.0205824 	4.2748e-22 -0.00507701 	0.020861 	6.21094e-22 -0.00456478 	0.0216328 	2.89308e-22 -0.00412519 	0.0224184 	0 -0.00403635 	0.0226929 	0 -0.00417406 	0.0230278 	3.25475e-25 -0.00441803 	0.0233586 	8.04956e-25 -0.00389777 	0.0243621 	8.51656e-26 -0.00376048 	0.0247595 	0 -0.0036781 	0.0250921 	0 -0.00360013 	0.0254456 	0 -0.00376331 	0.0258052 	-1.47632e-22 -0.00348978 	0.026474 	0 -0.00342886 	0.0267434 	0 -0.00337033 	0.0270255 	0 -0.00331411 	0.0273199 	0 -0.00322644 	0.0278176 	0 -0.00321549 	0.0278883 	0 -0.00320465 	0.0279595 	0 -0.0031939 	0.0280313 	0 -0.00318325 	0.0281036 	0 -0.00319507 	0.0280833 	0 -0.00308857 	0.0284882 	0 -0.00301354 	0.0289108 	0 -0.00294239 	0.0293569 	0 -0.00287495 	0.0298256 	0 -0.00296908 	0.0295961 	0 -0.00271158 	0.0301763 	0 -0.00264032 	0.0306561 	0 -0.00257264 	0.0311602 	0 -0.00250838 	0.0316876 	0 -0.00273286 	0.0308255 	0 -0.0023902 	0.0316343 	0 -0.00227985 	0.032216 	0 -0.00221535 	0.0327725 	0 -0.00225581 	0.0328086 	0 -0.00249296 	0.0317786 	0 -0.00214986 	0.0327403 	0 -0.00193771 	0.033568 	0 -0.00187698 	0.0341701 	0 -0.00201722 	0.0336549 	0 -0.00225911 	0.0324835 	0 -0.00191932 	0.033596 	0 -0.00162481 	0.0347373 	7.17732e-38 -0.00156988 	0.035378 	5.95636e-37 -0.00179857 	0.0342985 	1.12087e-36 -0.00204414 	0.0329898 	1.6391e-36 -0.00171072 	0.0342482 	1.05625e-36 -0.0013853 	0.0356401 	4.79603e-37 -0.0013525 	0.0360909 	7.41354e-40 -0.00161025 	0.0347504 	1.59448e-39 -0.00186093 	0.0333086 	2.43616e-39 -0.0015358 	0.0347067 	1.50143e-39 -0.00121834 	0.0362464 	5.7645e-40 -0.00119791 	0.0364836 	-3.39551e-37 -0.00146599 	0.0350231 	-8.70058e-37 -0.00172699 	0.0334495 	-1.39372e-36 -0.00141058 	0.0349834 	-8.17468e-37 -0.00110168 	0.0366668 	-2.4712e-37 -0.00109419 	0.0367138 	0 -0.001384 	0.0351328 	0 -0.00166611 	0.0334209 	0 -0.00135727 	0.0350937 	0 -0.00105619 	0.0369261 	0 -0.00105535 	0.0367772 	0 -0.00138666 	0.0350636 	0 -0.00170844 	0.0331894 	0 -0.0014051 	0.0350218 	0 -0.00111055 	0.0370292 	0 -0.00109529 	0.0366222 	0 -0.00149904 	0.0347405 	0 -0.00188886 	0.032646 	0 -0.00159043 	0.0346958 	0 -0.00133541 	0.0365489 	0 -0.00130928 	0.0358335 	0 -0.00173234 	0.0339049 	0 -0.00222861 	0.0314694 	0 -0.00194196 	0.0338707 	0 -0.00174775 	0.0351027 	0 -0.00169384 	0.03402 	0 -0.0020376 	0.0320291 	0 -0.00268275 	0.0290221 	0 -0.00243529 	0.0320668 	0 -0.00227303 	0.0319404 	0 -0.0021469 	0.030168 	0 -0.00217429 	0.0280681 	0 -0.00299702 	0.0241051 	0 -0.00284934 	0.0279875 	0 -0.00254019 	0.0249509 	0 -0.00223104 	0.0219143 	0 -0.00192189 	0.0188777 	0 -0.00233469 	0.014089 	0 -0.00223473 	0.016066 	0 -0.00176391 	0.0126812 	0 -0.0012931 	0.00929639 	0 -0.000822279 	0.00591157 	0 0 	0 	0
-0.0389064 	0.000115543 	0 -0.0388731 	0.00030188 	-3.16153e-23 -0.0387904 	0.000507879 	-7.21713e-23 -0.0387259 	0.000714402 	-1.12939e-22 -0.0386796 	0.000921446 	-1.5392e-22 -0.0386126 	0.00112137 	-1.95486e-22 -0.0384725 	0.0012947 	-2.48077e-22 -0.0382987 	0.00148809 	-2.60364e-22 -0.0381424 	0.00168288 	-2.71495e-22 -0.0380036 	0.00187909 	-2.81457e-22 -0.0379897 	0.00190173 	-2.82463e-22 -0.0379701 	0.00193705 	-2.85075e-22 -0.0379511 	0.00197241 	-2.8767e-22 -0.0379326 	0.00200783 	-2.90248e-22 -0.0379148 	0.00204329 	-2.92809e-22 -0.0378847 	0.00208504 	-2.97207e-22 -0.037632 	0.00226906 	-2.51584e-22 -0.0373913 	0.00245427 	-2.06461e-22 -0.0371686 	0.00264189 	-1.60928e-22 -0.0369642 	0.00283194 	-1.14979e-22 -0.0366691 	0.00308074 	-7.53503e-23 -0.0363849 	0.00325318 	-1.51699e-22 -0.0360903 	0.00343403 	-1.46217e-22 -0.0358139 	0.00361819 	-1.41651e-22 -0.035556 	0.00380575 	-1.38024e-22 -0.03507 	0.00413187 	5.95798e-23 -0.0347454 	0.0042674 	2.41235e-23 -0.0344176 	0.00444999 	3.76482e-23 -0.0341086 	0.00463696 	5.12401e-23 -0.0337208 	0.0048855 	6.62493e-23 -0.033135 	0.00527065 	8.45074e-23 -0.0327599 	0.00538821 	4.68922e-23 -0.0324044 	0.00552501 	1.91606e-23 -0.0320843 	0.00572224 	2.83967e-23 -0.0314815 	0.00611319 	5.14695e-23 -0.030908 	0.00652376 	7.43842e-23 -0.0305111 	0.00664159 	4.01454e-23 -0.0301299 	0.00676546 	5.76648e-24 -0.0295271 	0.00705203 	0 -0.0289646 	0.00746703 	1.17944e-23 -0.0284331 	0.00791042 	2.38868e-23 -0.0280431 	0.00804572 	3.26915e-24 -0.0274525 	0.00834043 	0 -0.0268537 	0.00868082 	0 -0.0262925 	0.00904086 	0 -0.025836 	0.00937387 	0 -0.0258199 	0.00938801 	0 -0.0258039 	0.00940217 	0 -0.0257879 	0.00941636 	0 -0.0257692 	0.00943206 	0 -0.0257448 	0.00945081 	0 -0.0251417 	0.00980451 	0 -0.0245846 	0.0101889 	0 -0.0240674 	0.0105986 	0 -0.0234964 	0.0110799 	0 -0.0227879 	0.0117039 	0 -0.022212 	0.0120621 	0 -0.0216586 	0.0124608 	0 -0.0209879 	0.012955 	0 -0.020377 	0.0134925 	0 -0.0197987 	0.0141052 	0 -0.0197877 	0.0141199 	0 -0.0197767 	0.0141346 	0 -0.0197654 	0.0141493 	0 -0.0197507 	0.0141643 	0 -0.0197359 	0.0141794 	0 -0.0190333 	0.0147415 	0 -0.0184046 	0.0153691 	0 -0.0178195 	0.0160475 	1.57254e-24 -0.0171815 	0.0167414 	1.26386e-23 -0.0164288 	0.0177379 	2.7293e-23 -0.0163578 	0.017834 	2.73598e-23 -0.0162881 	0.0179314 	2.7435e-23 -0.016216 	0.0180228 	2.46639e-23 -0.0161396 	0.0181047 	1.76871e-23 -0.0160678 	0.0181842 	1.10221e-23 -0.0153471 	0.0189543 	5.23406e-23 -0.0147004 	0.0198088 	9.76246e-23 -0.0141022 	0.0206001 	7.21649e-24 -0.0136192 	0.0214195 	-1.97666e-22 -0.0133169 	0.0221091 	-3.66563e-22 -0.0132102 	0.022329 	-4.69931e-22 -0.013106 	0.0225452 	-5.50392e-22 -0.0130029 	0.0227134 	-4.57936e-22 -0.0129022 	0.0228842 	-3.66241e-22 -0.0127909 	0.0230804 	-2.63428e-22 -0.0124218 	0.0236934 	-2.63825e-23 -0.0120854 	0.0243474 	2.04965e-22 -0.0117806 	0.0250403 	4.30756e-22 -0.0115814 	0.0255412 	3.27379e-22 -0.011443 	0.0259454 	1.41059e-22 -0.0108688 	0.0268898 	3.12549e-23 -0.0103418 	0.0279074 	-8.02535e-23 -0.00999811 	0.0285616 	2.45965e-22 -0.00983549 	0.0292489 	1.00697e-21 -0.00975887 	0.0299073 	1.83667e-21 -0.0094139 	0.0307458 	2.54456e-21 -0.00918224 	0.0313161 	2.26649e-21 -0.00899127 	0.0318189 	1.70181e-21 -0.00881072 	0.0323413 	1.14948e-21 -0.00855458 	0.0331536 	3.37818e-22 -0.0084988 	0.0333525 	2.53504e-22 -0.00844417 	0.0335537 	1.69341e-22 -0.00839068 	0.0337571 	8.53273e-23 -0.00833975 	0.0339601 	2.72058e-24 -0.00838384 	0.0339946 	2.83491e-24 -0.0079855 	0.0348123 	-1.1722e-22 -0.00775175 	0.0356852 	-3.29244e-22 -0.00753719 	0.0365992 	-5.45154e-22 -0.00742237 	0.0373871 	-7.64516e-22 -0.00764536 	0.0375284 	-9.79207e-22 -0.00704581 	0.0385534 	-6.50463e-22 -0.00656191 	0.0396417 	-7.9804e-23 -0.00638616 	0.0407319 	1.26462e-21 -0.00665639 	0.0409063 	2.3064e-21 -0.00691909 	0.0410325 	3.30744e-21 -0.00631172 	0.042266 	1.88322e-21 -0.00572864 	0.0435917 	4.78315e-22 -0.00559625 	0.0442162 	8.01101e-25 -0.0059076 	0.0443521 	3.3911e-24 -0.00620338 	0.0444503 	5.90868e-24 -0.00559183 	0.0458917 	2.55e-24 -0.0051155 	0.0471396 	0 -0.00502481 	0.0475021 	0 -0.00518721 	0.0476987 	-3.07467e-21 -0.00550815 	0.0477535 	-8.11565e-21 -0.00489659 	0.0493964 	-1.74238e-21 -0.00466592 	0.050131 	0 -0.00457854 	0.0505236 	0 -0.00450659 	0.0509212 	-3.01055e-25 -0.00484534 	0.0509156 	-1.0028e-23 -0.00431396 	0.0525217 	0 -0.00422861 	0.0529201 	0 -0.00414546 	0.0533371 	0 -0.00406446 	0.0537725 	0 -0.00422706 	0.0539037 	2.34719e-21 -0.00389442 	0.0550584 	3.0482e-37 -0.00381593 	0.0554761 	8.92819e-37 -0.00373933 	0.055912 	1.47983e-36 -0.00366459 	0.0563656 	2.06587e-36 -0.00367093 	0.0567049 	2.74422e-36 -0.00355128 	0.0572082 	2.98322e-36 -0.00351491 	0.057436 	2.56237e-36 -0.00347898 	0.0576686 	2.14331e-36 -0.0034435 	0.057906 	1.72601e-36 -0.00339915 	0.0582125 	1.19994e-36 -0.00337091 	0.058415 	9.46829e-37 -0.00334296 	0.0586205 	6.93874e-37 -0.0033153 	0.0588291 	4.41073e-37 -0.00328792 	0.0590407 	1.88423e-37 -0.00329705 	0.0590134 	4.31619e-39 -0.00320971 	0.0595696 	-4.45778e-37 -0.00316039 	0.06002 	-9.652e-37 -0.00311224 	0.0604841 	-1.48533e-36 -0.00306526 	0.0609614 	-2.00614e-36 -0.0031311 	0.0606454 	-2.52686e-36 -0.00298859 	0.061532 	-1.95062e-36 -0.00296983 	0.0620061 	-1.37596e-36 -0.00295173 	0.0624884 	-8.01646e-37 -0.00293428 	0.0629785 	-2.27681e-37 -0.00309488 	0.0620809 	0 -0.00289908 	0.0633468 	0 -0.0029306 	0.0638634 	0 -0.002962 	0.0643784 	0 -0.00299327 	0.0648918 	0 -0.00326076 	0.0633457 	0 -0.00299387 	0.0650613 	0 -0.00310701 	0.0656562 	0 -0.00321855 	0.0662329 	0 -0.00334382 	0.0666393 	0 -0.00372757 	0.0644251 	0 -0.00342913 	0.0664749 	0 -0.00357741 	0.0674388 	0 -0.00381665 	0.0681289 	0 -0.00413079 	0.0677907 	0 -0.00461546 	0.0651731 	0 -0.0043288 	0.0675744 	0 -0.00441651 	0.0692632 	0 -0.00485511 	0.0701568 	0 -0.00541115 	0.0685477 	0 -0.00602956 	0.0652279 	0 -0.0057821 	0.0682726 	0 -0.00564234 	0.0712747 	0 -0.00638223 	0.0725334 	0 -0.00717905 	0.0683494 	0 -0.00792654 	0.0637534 	0 -0.00779161 	0.068058 	0 -0.00768427 	0.0725907 	0 -0.00812701 	0.0719525 	0 -0.00898133 	0.0656194 	0 -0.0097264 	0.058695 	0 -0.00986106 	0.0655538 	0 -0.00998016 	0.0717498 	0 -0.0092489 	0.0664927 	0 -0.0094073 	0.0574728 	0 -0.00971515 	0.0464847 	0 -0.0103783 	0.0587623 	0 -0.00935947 	0.0545973 	0 -0.00786073 	0.0458546 	0 -0.006362 	0.0371119 	0 -0.00502461 	0.0218835 	0 -0.0055021 	0.0323778 	0 -0.00447233 	0.026318 	0 -0.00344257 	0.0202582 	0 -0.0024128 	0.0141984 	0 0 	0 	0