# vtk DataFile Version 2.0
track0
ASCII
DATASET POLYDATA
POINTS 41159 float
0.05 8.57988e-20 2.57396e-18
0.05 0.00217391 -1.05592e-17
0.05 0.00217391 -1.05592e-17
0.05 0.00217391 -1.05592e-17
0.05 0.00217391 -1.05592e-17
0.05 0.00217391 -1.05592e-17
0.05 0.00217391 -1.38778e-17
0.0493333 0.00217504 -5.27356e-18
0.0486667 0.00217721 -5.41234e-18
0.048 0.00218097 -3.34153e-18
0.0473334 0.00218789 -1.5619e-18
0.0466667 0.00219738 1.38778e-18
0.046 0.00220929 -1.80411e-18
0.0453333 0.00222065 -3.6776e-18
0.0446667 0.00223264 -2.21468e-18
0.0440001 0.00224764 -5.1505e-18
0.0433333 0.00226612 -1.249e-17
0.0426667 0.00228844 -1.01308e-17
0.0419999 0.00230881 -1.13108e-17
0.0413332 0.00232945 -1.05205e-17
0.0406666 0.00235304 -1.77964e-17
0.04 0.00238062 -1.94289e-17
0.0393333 0.00241334 -1.77636e-17
0.0386665 0.00244293 -2.31063e-17
0.0379997 0.00247328 -2.31515e-17
0.0373331 0.00250662 -2.15767e-17
0.0366667 0.00254384 -2.22045e-17
0.036 0.00258741 -2.33147e-17
0.0353331 0.0026269 -2.13693e-17
0.0346663 0.00266868 -1.62206e-17
0.0339997 0.00271366 -1.76177e-17
0.0333333 0.00276195 -1.80411e-17
0.0326667 0.00281739 -2.52576e-17
0.0319998 0.00286975 -2.06775e-17
0.0313331 0.00292553 -1.85818e-17
0.0306668 0.00298488 -1.99396e-17
0.03 0.00304802 -2.22045e-17
0.0294499 0.00310508 -2.12884e-17
0.0288999 0.00316185 -2.2454e-17
0.02835 0.0032213 -1.96085e-17
0.0278005 0.00328351 -2.17869e-17
0.0273801 0.00333333 -2.59734e-17
0.0272374 0.00335084 -2.35543e-17
0.0270948 0.00336854 -2.94618e-17
0.0269521 0.00338646 -2.70425e-17
0.0268095 0.00340458 -2.18476e-17
0.0266667 0.00342294 -2.47562e-17
0.026 0.00351158 -1.62081e-17
0.0253338 0.00360343 -1.59787e-17
0.0246682 0.00370009 -1.26314e-17
0.0240034 0.00380177 -1.63815e-17
0.0233333 0.00390964 -2.03886e-17
0.0226667 0.004036 -2.05991e-17
0.0219994 0.00415912 -1.80286e-17
0.0213331 0.00428756 -1.26267e-17
0.0206681 0.00442212 -1.3194e-17
0.02 0.0045739 -6.49774e-18
0.0193333 0.00475296 -8.46032e-18
0.0186665 0.00493138 -1.18044e-17
0.0179995 0.00510911 -1.3692e-17
0.0173359 0.00529946 -1.62522e-17
0.0166667 0.00552097 -1.249e-17
0.0160622 0.00575011 -6.81682e-18
0.0154587 0.00598147 -7.18093e-18
0.0148593 0.0062236 -4.0929e-18
0.014267 0.00648233 -9.50452e-18
0.013877 0.00666667 -1.47832e-17
0.0137683 0.00672086 -1.18266e-17
0.0136599 0.0067758 -8.87054e-18
0.0135519 0.0068315 -1.28541e-17
0.0134444 0.00688797 -8.57674e-18
0.0133333 0.00694757 -1.71211e-17
0.0126667 0.00731458 -1.9814e-17
0.0120123 0.00770317 -1.56039e-17
0.0113733 0.00811638 -1.54565e-17
0.0107514 0.0085551 -1.31503e-17
0.01 0.00914562 -6.93889e-18
0.00980937 0.0093165 -3.68715e-18
0.00962039 0.00948919 -1.0154e-17
0.00943308 0.00966369 -1.5294e-17
0.00924749 0.00984003 -1.85331e-17
0.00908245 0.01 -1.94289e-17
0.0085993 0.0104767 -1.40747e-17
0.00813925 0.0109758 -1.74851e-17
0.00770381 0.0114965 -1.90108e-17
0.00729201 0.0120361 -1.86563e-17
0.00666667 0.0129273 -1.80411e-17
0.00661674 0.0130085 -2.08998e-17
0.00656712 0.0130899 -2.51458e-17
0.0065178 0.0131715 -2.24524e-17
0.00646878 0.0132532 -2.04871e-17
0.0064209 0.0133333 -1.94289e-17
0.00602346 0.014 -1.56819e-17
0.00566236 0.014687 -1.78669e-17
0.00533194 0.0153893 -2.06814e-17
0.00502826 0.0161036 -2.48661e-17
0.00479137 0.0166667 -2.61951e-17
0.004513 0.0173333 -2.89721e-17
0.00427412 0.0180151 -2.57635e-17
0.0040613 0.0187055 -2.41889e-17
0.00385934 0.0193992 -2.45278e-17
0.00369404 0.02 -1.47065e-17
0.0036219 0.0202592 -2.09245e-17
0.00355548 0.0205199 -1.78922e-17
0.00349091 0.0207811 -2.32478e-17
0.0034278 0.0210426 -2.3401e-17
0.00333333 0.0214438 -1.92833e-17
0.00324756 0.0218217 -1.95717e-17
0.00316441 0.0222002 -2.1098e-17
0.0030838 0.0225792 -1.84567e-17
0.00300562 0.0229588 -1.71991e-17
0.00293089 0.0233333 -2.35922e-17
0.00279343 0.024 -1.63758e-17
0.00267142 0.0246697 -1.7838e-17
0.00255714 0.0253407 -2.16533e-17
0.00244996 0.0260129 -1.60845e-17
0.00234709 0.0266667 -6.93889e-18
0.00223103 0.0273333 -4.57967e-18
0.00213383 0.028003 -5.68238e-18
0.00205224 0.0286748 -2.4804e-18
0.00197635 0.0293472 -7.10767e-18
0.00189141 0.03 -6.93889e-18
0.00179196 0.0306667 -4.57967e-18
0.00171258 0.031336 -7.08214e-18
0.00165224 0.0320074 -6.39555e-18
0.001594 0.0326789 -1.09254e-17
0.00152359 0.0333333 -1.55707e-17
0.00143755 0.034 -1.52313e-17
0.00137296 0.0346691 -1.7188e-17
0.00132812 0.0353398 -1.99147e-17
0.00128421 0.0360105 -1.49135e-17
0.00122627 0.0366667 -1.93894e-17
0.0011514 0.0373333 -2.09994e-17
0.00109955 0.0380022 -1.73012e-17
0.0010617 0.038672 -1.86051e-17
0.00102385 0.0393418 -1.43098e-17
0.000977046 0.04 -1.82805e-17
0.000911729 0.0406667 -1.81717e-17
0.000871335 0.0413353 -1.44929e-17
0.000838632 0.0420044 -1.51341e-17
0.000805928 0.0426734 -1.01652e-17
0.000769431 0.0433333 -1.72408e-17
0.000712437 0.044 -1.36765e-17
0.000682632 0.0446684 -1.14034e-17
0.000654401 0.0453369 -8.54084e-18
0.00062617 0.0460054 -7.22551e-18
0.000598245 0.0466667 -9.32295e-18
0.000548565 0.0473333 -3.0993e-18
0.000524243 0.0480014 -2.1197e-18
0.000499921 0.0486695 -2.64146e-18
0.000475599 0.0493376 -1.06929e-17
0.000451481 0.05 -1.04663e-17
0.000408208 0.0506667 -1.20596e-17
0.000387268 0.0513344 8.83415e-19
0.000366328 0.0520021 -1.94647e-18
0.000345388 0.0526699 -9.76814e-19
0.000324583 0.0533333 -1.0255e-17
0.00028681 0.054 -4.08245e-19
0.00026869 0.0546675 -3.77676e-18
0.000250571 0.055335 -1.30479e-17
0.000232452 0.0560025 -1.48533e-17
0.000214422 0.0566667 -1.42349e-17
0.000181129 0.0573333 -2.00081e-17
0.000165156 0.0580006 -1.88702e-17
0.000149183 0.0586679 -2.27617e-17
0.00013321 0.0593353 -2.31791e-17
0.000117298 0.06 -2.65631e-17
9.38384e-05 0.0605201 -2.21885e-17
8.23546e-05 0.0610405 -2.40782e-17
7.08707e-05 0.061561 -3.22129e-17
5.93868e-05 0.0620815 -3.33036e-17
3.17643e-05 0.0633333 -3.89107e-17
2.54114e-05 0.0634818 -3.9607e-17
2.21283e-05 0.0636303 -3.8747e-17
1.88451e-05 0.0637789 -3.19022e-17
1.55619e-05 0.0639274 -3.16493e-17
0 0.0646315 -3.25325e-17
0.05 0.00434783 5.94331e-18
0.0493333 0.00434875 3.8601e-18
0.0486667 0.00435275 3.85345e-18
0.048 0.00435912 -1.38846e-19
0.0473334 0.00436718 -3.20507e-18
0.0466667 0.00437814 4.50505e-18
0.046 0.00439311 5.86789e-18
0.0453334 0.00440975 4.45241e-18
0.0446668 0.00442803 1.24981e-18
0.0440003 0.00444794 -7.30865e-19
0.0433333 0.00447175 8.97113e-18
0.0426667 0.00450077 7.0828e-18
0.042 0.00453024 1.21364e-17
0.0413334 0.00456042 1.13103e-17
0.0406669 0.00459224 7.99738e-18
0.04 0.00462966 1.31067e-17
0.0393333 0.00467358 1.33805e-17
0.0386666 0.00471696 1.22675e-17
0.0379999 0.00475979 1.29055e-17
0.0373333 0.00480491 1.86877e-17
0.0366667 0.0048576 1.6168e-17
0.036 0.00491819 8.79722e-18
0.0353332 0.0049775 4.86522e-18
0.0346663 0.00503552 3.66268e-18
0.0339998 0.00509724 7.32641e-18
0.0333333 0.00516794 1.52656e-17
0.0326667 0.00524808 1.6237e-17
0.0319998 0.00532652 1.96376e-17
0.0313327 0.00540323 1.76946e-17
0.0306664 0.00548596 1.89666e-17
0.03 0.00557883 1.11022e-17
0.0293333 0.00568284 1.55431e-17
0.0286664 0.0057851 1.08945e-17
0.028 0.00589074 1.20305e-17
0.0273348 0.00600369 1.48079e-17
0.0266667 0.00612515 1.38778e-17
0.0261286 0.00623345 1.33861e-17
0.0255906 0.00634186 8.73096e-18
0.0250536 0.00645571 7.93375e-18
0.024518 0.00657525 4.32799e-19
0.0241287 0.00666667 6.3083e-18
0.0239696 0.00670543 5.87931e-18
0.0238107 0.00674477 5.92855e-19
0.0236519 0.00678469 2.24505e-18
0.0234933 0.00682519 1.12144e-18
0.0233333 0.00686667 5.21804e-18
0.0226667 0.00704448 7.69749e-18
0.0220025 0.00723143 5.99838e-18
0.0213415 0.00742919 5.75471e-19
0.020684 0.00763826 1.17291e-18
0.02 0.00787249 -2.88592e-18
0.0193333 0.00812602 1.73728e-18
0.0186708 0.00839008 -4.78902e-19
0.0180127 0.00866526 3.00753e-19
0.0173621 0.00895754 -3.45626e-19
0.0166667 0.00929859 -6.93889e-18
0.016406 0.00943887 -1.01485e-17
0.0161465 0.00958116 -1.43993e-17
0.0158882 0.0097257 -1.4663e-17
0.0156316 0.00987323 -1.28479e-17
0.015417 0.01 -5.55112e-18
0.0150002 0.0102519 -4.1944e-19
0.0145896 0.0105135 -6.25541e-18
0.0141854 0.010785 -1.04395e-17
0.013788 0.0110664 -9.38955e-18
0.0133333 0.0114085 4.29989e-19
0.0128566 0.0117934 -7.93912e-19
0.0123902 0.0121908 -5.04011e-18
0.0119345 0.0126005 -1.13996e-18
0.0114905 0.0130228 7.51606e-18
0.0111818 0.0133333 1.21308e-17
0.0109454 0.0135808 8.59441e-18
0.0107144 0.0138333 1.09024e-17
0.0104889 0.0140906 1.15492e-17
0.0102687 0.0143526 1.16583e-17
0.01 0.0146855 1.42443e-17
0.00969612 0.0150818 7.82061e-18
0.00940145 0.0154849 1.42688e-17
0.00911597 0.0158946 1.39622e-17
0.00883918 0.0163102 9.56593e-18
0.00860998 0.0166667 1.80411e-17
0.00822132 0.0172892 8.82748e-18
0.00786029 0.0179281 -8.63278e-19
0.00752567 0.0185812 -4.58489e-18
0.00720956 0.0192435 -4.66519e-18
0.00687291 0.02 -3.64814e-18
0.00683166 0.0200992 1.79993e-18
0.00679104 0.0201987 -8.5499e-18
0.00675093 0.0202983 -7.27629e-18
0.00671122 0.0203982 -8.77864e-18
0.00666667 0.0205115 -1.09981e-19
0.00644782 0.0210759 6.15702e-18
0.00624053 0.0216446 8.94375e-18
0.00604417 0.0222172 1.14533e-17
0.00585807 0.0227932 8.97937e-18
0.00568957 0.0233333 6.93889e-18
0.00548023 0.024 1.20737e-17
0.00529336 0.0246733 1.30341e-17
0.00512784 0.0253522 1.40986e-17
0.0049702 0.0260329 1.41606e-17
0.00481959 0.0266667 1.29067e-17
0.00465757 0.0273333 1.89205e-17
0.00451654 0.0280048 1.37888e-17
0.00439215 0.0286795 1.43422e-17
0.00427195 0.0293549 1.29788e-17
0.0041562 0.03 1.18135e-17
0.00403143 0.0306667 1.27152e-17
0.00392584 0.0313366 1.71987e-17
0.00382459 0.0320073 1.36575e-17
0.00372696 0.0326785 9.41725e-18
0.00363519 0.0333333 2.27286e-18
0.00357482 0.0337563 -1.43256e-18
0.00351944 0.0341799 -7.92072e-18
0.00346541 0.0346037 -5.04332e-18
0.0034127 0.0350276 -1.13217e-17
0.00333333 0.0356822 -6.93889e-18
0.00331037 0.0358791 -8.36492e-18
0.00328766 0.036076 -9.79051e-18
0.00326521 0.036273 -7.05234e-18
0.00324301 0.03647 -5.70154e-18
0.00322108 0.0366667 -6.93889e-18
0.00314621 0.0373333 -5.27356e-18
0.0030755 0.0380005 -8.81315e-18
0.00300768 0.0386679 -3.31788e-18
[...]
POINT_DATA 41159
 FIELD attributes 1
U 3 41159 float
-6.43676e-19 	-1.69083e-21 	0
-0.0152 	2.56603e-05 	0 -0.0152 	2.56603e-05 	0 -0.0152 	2.56603e-05 	0 -0.0152 	2.56603e-05 	0 -0.0152 	2.56603e-05 	0 -0.0152 	2.56603e-05 	0 -0.0155332 	5.0677e-05 	0 -0.0157704 	8.87986e-05 	-3.98229e-25 -0.0157306 	0.000163376 	-1.90478e-24 -0.0154774 	0.000220268 	-3.4184e-24 -0.0151535 	0.000270694 	-4.93796e-24 -0.015478 	0.000263841 	1.93395e-22 -0.0156604 	0.000281495 	3.2597e-22 -0.0155602 	0.000350233 	3.22053e-22 -0.0153266 	0.000424903 	1.92568e-22 -0.0150314 	0.000503262 	-6.17657e-24 -0.0153332 	0.00046846 	3.74116e-23 -0.0154243 	0.000477403 	5.98325e-23 -0.0152747 	0.000540542 	5.63036e-23 -0.0150706 	0.00062346 	3.20254e-23 -0.0148153 	0.000727232 	-1.38365e-23 -0.0150837 	0.000669354 	-1.0152e-23 -0.0150538 	0.000685061 	-2.69519e-23 -0.0148688 	0.00074375 	-5.55123e-23 -0.0146851 	0.000820169 	-8.51548e-23 -0.0144777 	0.000946154 	-1.17717e-22 -0.0147048 	0.000870695 	-8.88828e-23 -0.0145346 	0.000910742 	-8.45146e-23 -0.0143289 	0.000966854 	-8.34608e-23 -0.0141396 	0.00102474 	-8.26821e-23 -0.0139851 	0.00116304 	-1.08629e-22 -0.0140835 	0.00110566 	-1.91338e-22 -0.0138556 	0.00115938 	-1.53737e-22 -0.0136434 	0.00121521 	-1.15559e-22 -0.0134476 	0.00127324 	-7.67805e-23 -0.0133113 	0.00138092 	1.07743e-23 -0.0132647 	0.00136898 	-4.66029e-23 -0.0130798 	0.0014142 	-3.31875e-23 -0.0129055 	0.00146116 	-1.90981e-23 -0.0127422 	0.00150994 	-4.31063e-24 -0.0126258 	0.0015487 	7.56268e-24 -0.0125892 	0.00156255 	1.18202e-23 -0.0125533 	0.00157654 	1.61303e-23 -0.0125182 	0.00159067 	2.04933e-23 -0.012484 	0.00160493 	2.49097e-23 -0.0124134 	0.00165043 	9.17398e-24 -0.0121751 	0.00167848 	6.80926e-24 -0.0119719 	0.00173883 	7.7279e-24 -0.0117847 	0.00180247 	8.61582e-24 -0.0116143 	0.00186953 	9.47168e-24 -0.0112571 	0.00213369 	5.13371e-23 -0.0109071 	0.00201264 	3.80119e-22 -0.0107187 	0.0020662 	4.66585e-22 -0.0105567 	0.00213593 	5.38752e-22 -0.0102934 	0.00233866 	4.38524e-22 -0.00996 	0.00267507 	1.80952e-22 -0.00965322 	0.00258285 	4.46606e-22 -0.00934483 	0.00248995 	7.12243e-22 -0.00903231 	0.0025912 	7.26386e-22 -0.00876522 	0.00290099 	4.92929e-22 -0.00854514 	0.00323948 	2.6065e-22 -0.00832178 	0.00318986 	4.64429e-22 -0.00804013 	0.00324806 	5.00099e-22 -0.00774241 	0.00338182 	4.33225e-22 -0.00747832 	0.00353508 	3.62991e-22 -0.0073262 	0.00365115 	3.13771e-22 -0.0072786 	0.0036908 	2.99862e-22 -0.00723247 	0.00373141 	2.85808e-22 -0.00718781 	0.00377298 	2.71608e-22 -0.0071297 	0.00382645 	2.69995e-22 -0.0070638 	0.0038888 	2.74624e-22 -0.00666016 	0.00395525 	1.8233e-22 -0.00639351 	0.00413389 	9.85082e-23 -0.00615658 	0.0043437 	1.92193e-23 -0.00588738 	0.00462662 	2.61148e-23 -0.00560963 	0.00502838 	3.21748e-23 -0.005548 	0.00506981 	1.8561e-23 -0.00548951 	0.00511415 	4.9408e-24 -0.00543322 	0.00516245 	3.0185e-23 -0.00537961 	0.00521433 	7.75566e-23 -0.00533441 	0.0052636 	1.20096e-22 -0.00502774 	0.00545438 	1.20935e-22 -0.00475398 	0.00568464 	1.15826e-22 -0.00452018 	0.00592282 	1.04721e-22 -0.00432465 	0.0061631 	8.81055e-23 -0.00405764 	0.00660032 	5.34849e-23 -0.0040409 	0.0066284 	8.86016e-23 -0.00402454 	0.00665699 	1.23416e-22 -0.00400857 	0.0066861 	1.5793e-22 -0.00400884 	0.00670756 	8.42515e-23 -0.00401095 	0.00672788 	3.99044e-25 -0.00362544 	0.00689786 	-6.7734e-22 -0.00341349 	0.00725522 	-1.11999e-21 -0.00326119 	0.00767048 	-1.49962e-21 -0.00335144 	0.00796609 	-1.18859e-21 -0.00342545 	0.0082035 	-9.43037e-22 -0.00300002 	0.0085627 	-6.19991e-22 -0.00273532 	0.00887378 	-3.63749e-22 -0.00264251 	0.00907552 	-1.97361e-22 -0.00255937 	0.00930291 	-2.60625e-23 -0.00268935 	0.00966239 	1.76055e-23 -0.00252371 	0.00990578 	1.43366e-24 -0.00247534 	0.0100131 	0 -0.00243975 	0.0101114 	0 -0.00240569 	0.0102146 	0 -0.00235582 	0.0103796 	0 -0.00231323 	0.01053 	0 -0.00227335 	0.0106892 	0 -0.0022361 	0.0108572 	0 -0.00220136 	0.0110334 	0 -0.00226429 	0.0109811 	0 -0.00201808 	0.011077 	0 -0.00194536 	0.0114221 	0 -0.00188172 	0.0118014 	0 -0.00189149 	0.0120211 	0 -0.00205372 	0.0117973 	0 -0.00173414 	0.0119475 	0 -0.00148672 	0.0122399 	0 -0.00143993 	0.0127588 	0 -0.00163085 	0.0125344 	0 -0.00181937 	0.0121968 	0 -0.0014798 	0.0124771 	0 -0.00115855 	0.0128906 	0 -0.00112676 	0.0129903 	0 -0.00135886 	0.0126311 	0 -0.00157099 	0.0121721 	0 -0.00121615 	0.0125983 	0 -0.000882459 	0.0132 	0 -0.000839828 	0.012829 	0 -0.00109326 	0.0123805 	0 -0.00132497 	0.0117977 	0 -0.000959904 	0.0123817 	0 -0.000719362 	0.0127297 	0 -0.000694599 	0.0122915 	0 -0.000835897 	0.0117569 	0 -0.001083 	0.0110539 	0 -0.000713049 	0.0118031 	0 -0.000576927 	0.0118029 	0 -0.000555273 	0.01136 	0 -0.000599666 	0.0108425 	0 -0.000857476 	0.01003 	0 -0.000488109 	0.010947 	0 -0.00044757 	0.0105982 	0 -0.00042906 	0.0101599 	0 -0.00041055 	0.0097216 	0 -0.000657814 	0.00882722 	0 -0.00034906 	0.0095879 	0 -0.000333583 	0.00916279 	0 -0.000318107 	0.00873769 	0 -0.00030263 	0.00831258 	0 -0.000481875 	0.00742379 	0 -0.000247974 	0.00790746 	0 -0.000235254 	0.00750183 	0 -0.000222533 	0.0070962 	0 -0.000209813 	0.00669056 	0 -0.000332448 	0.00586743 	2.90007e-37 -0.000164921 	0.00607543 	0 -0.000154502 	0.00569161 	0 -0.000144083 	0.00530779 	0 -0.000133664 	0.00492397 	0 -0.00021035 	0.00421214 	2.92655e-40 -9.93263e-05 	0.00414956 	0 -9.05671e-05 	0.00378362 	0 -8.18079e-05 	0.00341769 	0 -7.30487e-05 	0.00305176 	0 -0.000111911 	0.00248088 	-1.04643e-37 -5.08829e-05 	0.00230607 	0 -4.46559e-05 	0.00202386 	0 -3.84289e-05 	0.00174164 	0 -3.22019e-05 	0.00145943 	0 -3.07549e-05 	0.000718666 	0 -1.47402e-05 	0.000666934 	0 -1.28357e-05 	0.000580766 	0 -1.09313e-05 	0.000494597 	0 -9.02686e-06 	0.000408429 	0 0 	0 	0
-0.0295616 	4.11019e-05 	0 -0.0297826 	0.000178373 	0 -0.0298911 	0.000285976 	-7.05419e-25 -0.0298692 	0.000360844 	-2.18916e-24 -0.0296822 	0.000488021 	-1.80438e-23 -0.0293653 	0.000659622 	-4.6056e-23 -0.0294969 	0.000736234 	-2.27851e-22 -0.0295557 	0.000810496 	-3.39985e-22 -0.0294978 	0.000880967 	-3.4594e-22 -0.0292184 	0.00104298 	-2.34411e-22 -0.028838 	0.00125548 	-6.0035e-23 -0.0288818 	0.00127695 	-7.22465e-23 -0.0288984 	0.0013083 	-8.26662e-23 -0.0288102 	0.00137541 	-8.64752e-23 -0.0284162 	0.00159447 	-5.75185e-23 -0.0279964 	0.00184439 	-2.2658e-23 -0.0279601 	0.00181922 	-4.17775e-23 -0.0279208 	0.0017937 	-6.08966e-23 -0.0277666 	0.00187938 	-8.3453e-23 -0.0272934 	0.00215716 	-8.39094e-23 -0.0268593 	0.00244093 	-8.40171e-23 -0.0267554 	0.00238002 	-2.68598e-22 -0.0266449 	0.00231808 	-4.53269e-22 -0.0263407 	0.00243893 	-4.38197e-22 -0.025874 	0.00274508 	-2.2369e-22 -0.0254495 	0.00305928 	-8.62631e-24 -0.0252931 	0.00297524 	1.51873e-22 -0.0251288 	0.00288962 	3.12305e-22 -0.0246123 	0.00305565 	3.25369e-22 -0.0241703 	0.00336845 	2.38638e-22 -0.0237768 	0.00370965 	1.39323e-22 -0.0235844 	0.003616 	2.77216e-22 -0.0231971 	0.00367728 	3.13092e-22 -0.0226914 	0.00385298 	2.76867e-22 -0.0222144 	0.00403831 	2.39441e-22 -0.0218687 	0.00440186 	9.24197e-23 -0.0216609 	0.00436458 	8.45752e-23 -0.0212629 	0.00450869 	1.153e-22 -0.0208836 	0.00466017 	1.46538e-22 -0.0205239 	0.00481934 	1.78311e-22 -0.0202767 	0.00494117 	2.01866e-22 -0.0201803 	0.00499518 	2.03726e-22 -0.0200859 	0.00505001 	2.05522e-22 -0.0199936 	0.00510566 	2.07253e-22 -0.0199033 	0.00516214 	2.08918e-22 -0.0197485 	0.00526708 	2.17079e-22 -0.0192452 	0.0054171 	1.96835e-22 -0.0188243 	0.00563175 	2.01082e-22 -0.0184351 	0.00586163 	2.02949e-22 -0.0180022 	0.0061651 	2.22242e-22 -0.0174282 	0.00662805 	2.81812e-22 -0.0169399 	0.0067511 	1.59921e-22 -0.0164821 	0.0068926 	3.71796e-23 -0.0159244 	0.00715392 	0 -0.0154731 	0.00758796 	4.00757e-23 -0.0150445 	0.00809717 	8.10061e-23 -0.0149007 	0.00816824 	3.4703e-23 -0.0147482 	0.00825285 	0 -0.0145607 	0.00837128 	0 -0.0143807 	0.00849507 	0 -0.0142356 	0.00860389 	0 -0.0139086 	0.00886215 	0 -0.0136051 	0.00913967 	0 -0.0133259 	0.00943679 	0 -0.0129856 	0.00976796 	0 -0.0126106 	0.0101835 	0 -0.0122601 	0.0104457 	0 -0.0119432 	0.0107383 	0 -0.0116119 	0.0110416 	0 -0.0113019 	0.0113706 	0 -0.0111065 	0.0116284 	0 -0.010885 	0.011898 	0 -0.0106775 	0.0121821 	0 -0.0104672 	0.0124516 	-1.8221e-23 -0.0102573 	0.0127118 	-5.09517e-23 -0.0100115 	0.0130537 	-9.1796e-23 -0.00976021 	0.0133529 	-9.80648e-23 -0.0095313 	0.0136776 	-1.05428e-22 -0.00932952 	0.0140089 	-1.361e-22 -0.00917496 	0.0142699 	-2.83092e-22 -0.00905712 	0.0145064 	-4.08101e-22 -0.00853869 	0.0151114 	-6.31205e-22 -0.00808055 	0.0157724 	-8.19692e-22 -0.00775417 	0.0162462 	-5.26394e-22 -0.00746286 	0.0167692 	-2.38113e-22 -0.00726338 	0.0174683 	1.41576e-22 -0.00719547 	0.0176176 	2.38904e-22 -0.0071388 	0.0177378 	2.68103e-22 -0.00709194 	0.0178321 	2.3723e-22 -0.00704596 	0.0179278 	2.06694e-22 -0.00699482 	0.0180379 	1.72451e-22 -0.00675402 	0.0185303 	1.57679e-22 -0.00653767 	0.0190638 	1.4434e-22 -0.00634433 	0.0196356 	1.3235e-22 -0.00627143 	0.0201054 	1.34723e-22 -0.0063834 	0.0203285 	1.59954e-22 -0.0058178 	0.0209613 	1.00486e-22 -0.00528624 	0.0216821 	4.20922e-23 -0.00519647 	0.0224406 	1.71168e-22 -0.00541882 	0.0228008 	3.577e-22 -0.00561879 	0.0231196 	5.29971e-22 -0.00504049 	0.0239966 	2.34477e-22 -0.0045777 	0.0248301 	0 -0.00447394 	0.0251407 	0 -0.00457682 	0.0255084 	2.91631e-25 -0.00484444 	0.0258837 	8.17547e-25 -0.00425895 	0.0270237 	3.12257e-26 -0.00413775 	0.0274062 	0 -0.0040408 	0.0277811 	0 -0.00394903 	0.0281804 	0 -0.00407995 	0.0285816 	-1.22079e-22 -0.00382027 	0.0292218 	0 -0.00375809 	0.029477 	0 -0.00369795 	0.0297431 	0 -0.00363979 	0.0300198 	0 -0.00355302 	0.030463 	0 -0.00352876 	0.0306017 	0 -0.00350488 	0.0307425 	0 -0.00348138 	0.0308854 	0 -0.00345826 	0.0310303 	0 -0.00348034 	0.0309894 	0 -0.00333309 	0.031447 	0 -0.00324322 	0.0319146 	0 -0.00315779 	0.0324098 	0 -0.00307661 	0.0329313 	0 -0.00319292 	0.0325894 	0 -0.00289017 	0.0332628 	0 -0.00280366 	0.0337855 	0 -0.0027212 	0.0343366 	0 -0.00265171 	0.0348692 	0 -0.00289577 	0.0338722 	0 -0.0025264 	0.0347892 	0 -0.00238538 	0.0354388 	0 -0.00230543 	0.0360356 	0 -0.00235006 	0.0360025 	0 -0.00259717 	0.0348514 	0 -0.0022337 	0.0359337 	0 -0.00199597 	0.0368577 	0 -0.00191911 	0.0374885 	0 -0.00206233 	0.0368706 	0 -0.00230898 	0.0355722 	0 -0.00195622 	0.0368126 	0 -0.00164706 	0.0380729 	7.60157e-38 -0.00157545 	0.0387259 	6.46563e-37 -0.00180077 	0.0375306 	1.21871e-36 -0.00204508 	0.036094 	1.784e-36 -0.00170692 	0.0374818 	1.1546e-36 -0.00137616 	0.0390045 	5.31472e-37 -0.00132792 	0.0394721 	7.81658e-40 -0.00157684 	0.0380043 	1.66186e-39 -0.00181974 	0.0364392 	2.53176e-39 -0.00149865 	0.037962 	1.57642e-39 -0.00118426 	0.0396226 	6.30149e-40 -0.00115327 	0.0398942 	-3.95124e-37 -0.00140556 	0.0383125 	-9.73149e-37 -0.00165217 	0.036626 	-1.54487e-36 -0.00134893 	0.038273 	-9.23302e-37 -0.00105183 	0.0400599 	-3.07357e-37 -0.00104017 	0.0401698 	0 -0.00130762 	0.0384781 	0 -0.00156921 	0.0366687 	0 -0.00128282 	0.0384369 	0 -0.0010024 	0.0403478 	0 -0.00100725 	0.0403027 	0 -0.00131062 	0.0384922 	0 -0.00160694 	0.0365402 	0 -0.00133547 	0.0384438 	0 -0.00107045 	0.0404969 	0 -0.00107781 	0.0402528 	0 -0.00144964 	0.0382884 	0 -0.00181113 	0.036138 	0 -0.00155431 	0.0382288 	0 -0.00130554 	0.0404833 	0 -0.00128248 	0.0398626 	0 -0.00175772 	0.0376855 	0 -0.00222557 	0.0352132 	0 -0.00199085 	0.0376198 	0 -0.00180296 	0.039441 	0 -0.0017567 	0.038429 	0 -0.002215 	0.0361644 	0 -0.00283376 	0.0331237 	0 -0.00264898 	0.0361343 	0 -0.00250443 	0.0368838 	0 -0.00238873 	0.0351798 	0 -0.00261676 	0.0327145 	0 -0.00340939 	0.0286613 	0 -0.00334636 	0.0328923 	0 -0.00307884 	0.030811 	0 -0.00278103 	0.0278307 	0 -0.00248322 	0.0248504 	0 -0.00316327 	0.0194622 	0 -0.00306461 	0.0220749 	0 -0.00240792 	0.0173447 	0 -0.00175122 	0.0126144 	0 -0.00109453 	0.00788413 	0 -0.000131958 	0.000633936 	0 -0.000139107 	0.000807362 	0 -0.000110131 	0.000639189 	0 -8.1155e-05 	0.000471017 	0 -5.21793e-05 	0.000302844 	0 0 	0 	0
-0.0429653 	4.48652e-05 	0 -0.0429342 	0.000256354 	-2.04579e-23 -0.0428521 	0.0004889 	-4.67191e-23 -0.0427907 	0.000721957 	-7.3121e-23 -0.04275 	0.000955519 	-9.96635e-23 -0.0426855 	0.00117963 	-1.26598e-22 -0.0425383 	0.00137485 	-1.56037e-22 -0.0423535 	0.00159311 	-1.56701e-22 -0.0421884 	0.00181288 	-1.56566e-22 -0.0420433 	0.00203418 	-1.55622e-22 -0.0419936 	0.00212287 	-1.54921e-22 -0.0419806 	0.00215003 	-1.55239e-22 -0.041968 	0.00217721 	-1.55551e-22 -0.0419557 	0.00220441 	-1.55859e-22 -0.0419436 	0.00223164 	-1.56162e-22 -0.0419224 	0.00226354 	-1.57278e-22 -0.0416458 	0.00247062 	-1.29004e-22 -0.0413848 	0.00267924 	-1.00715e-22 -0.0411443 	0.00289052 	-7.22334e-23 -0.0409245 	0.0031045 	-4.35576e-23 -0.0406123 	0.00338017 	-2.02062e-23 -0.0402994 	0.00357602 	-7.46327e-24 -0.0399772 	0.00377911 	9.82786e-25 -0.0396755 	0.0039859 	9.62133e-24 -0.0393948 	0.00419647 	1.84564e-23 -0.0388721 	0.00455664 	1.8137e-23 -0.0385121 	0.00471289 	2.06311e-22 -0.038152 	0.00491719 	2.49088e-22 -0.0378132 	0.0051264 	2.93126e-22 -0.0373962 	0.00539966 	2.69253e-22 -0.036756 	0.00582897 	7.42994e-23 -0.0363378 	0.00596184 	4.74825e-23 -0.0359436 	0.00611816 	2.99673e-23 -0.035592 	0.00633804 	4.19229e-23 -0.0349402 	0.00676925 	7.42772e-23 -0.0343139 	0.00722683 	1.06898e-22 -0.0338702 	0.00735789 	5.82051e-23 -0.0334443 	0.00749571 	9.31149e-24 -0.0327854 	0.00781106 	5.43929e-26 -0.0321733 	0.0082766 	1.65783e-23 -0.0315945 	0.0087706 	3.29481e-23 -0.0311583 	0.00891925 	5.0704e-24 -0.030512 	0.00924199 	0 -0.0298515 	0.00962027 	0 -0.0292333 	0.0100204 	0 -0.0286749 	0.010432 	0 -0.0286678 	0.0104384 	0 -0.0286608 	0.0104448 	0 -0.0286537 	0.0104512 	0 -0.0286454 	0.0104583 	0 -0.0286346 	0.0104667 	0 -0.0279745 	0.0108628 	0 -0.0273607 	0.0112887 	0 -0.0267917 	0.0117427 	0 -0.0261703 	0.0122737 	0 -0.0253894 	0.0129673 	0 -0.0247527 	0.0133604 	0 -0.0241481 	0.0137962 	0 -0.0234055 	0.0143429 	0 -0.0227299 	0.0149377 	0 -0.0220334 	0.0156788 	0 -0.022033 	0.0156792 	0 -0.0220326 	0.0156796 	0 -0.0220321 	0.01568 	0 -0.0220316 	0.0156804 	0 -0.022031 	0.0156809 	0 -0.0212684 	0.016308 	0 -0.0205737 	0.0169985 	0 -0.0199346 	0.0177483 	2.88161e-27 -0.0192226 	0.0185154 	3.39471e-26 -0.0183878 	0.019612 	7.48753e-26 -0.0182952 	0.0197355 	7.50605e-26 -0.0182047 	0.0198611 	7.52781e-26 -0.0181107 	0.019979 	-5.9962e-24 -0.018011 	0.0200856 	-2.04828e-23 -0.0179182 	0.0201886 	-3.42277e-23 -0.0171401 	0.021027 	-2.92577e-23 -0.0164413 	0.0219553 	-2.08599e-23 -0.0157878 	0.022816 	-5.03247e-23 -0.0152163 	0.0236849 	-1.12176e-22 -0.0148176 	0.0245743 	-1.93672e-22 -0.0147241 	0.0247699 	-2.58644e-22 -0.0146322 	0.0249616 	-3.08743e-22 -0.0145393 	0.0251102 	-2.45798e-22 -0.0144481 	0.0252607 	-1.83275e-22 -0.0143493 	0.0254289 	-1.14766e-22 -0.0138984 	0.0261484 	2.44562e-22 -0.01349 	0.0269212 	5.91732e-22 -0.0131223 	0.0277442 	9.27108e-22 -0.0128815 	0.0283358 	6.38555e-22 -0.0127139 	0.0288158 	2.25686e-22 -0.0120678 	0.0298865 	-1.24982e-22 -0.0114757 	0.0310409 	-4.80393e-22 -0.0111008 	0.0317346 	-8.14717e-23 -0.0108669 	0.0325017 	6.6611e-22 -0.0107733 	0.0332473 	1.63423e-21 -0.010428 	0.0340927 	2.28078e-21 -0.0101923 	0.0346614 	2.04348e-21 -0.00999464 	0.0351625 	1.55837e-21 -0.00980657 	0.0356815 	1.08343e-21 -0.00954679 	0.0364604 	4.07718e-22 -0.00945674 	0.0367609 	3.0554e-22 -0.0093692 	0.0370663 	2.03622e-22 -0.00928412 	0.0373765 	1.01961e-22 -0.00920477 	0.0376854 	2.85632e-24 -0.00926936 	0.0377387 	3.026e-24 -0.00876001 	0.0386631 	-8.48663e-23 -0.00848922 	0.0396482 	-2.951e-22 -0.00824034 	0.0406803 	-5.09258e-22 -0.00814413 	0.0414873 	-7.26818e-22 -0.00838258 	0.0416407 	-9.39087e-22 -0.00771011 	0.0428005 	-6.15197e-22 -0.00711628 	0.0440414 	-1.58187e-22 -0.00693792 	0.0451924 	1.24578e-21 -0.00723226 	0.0453543 	2.36601e-21 -0.00750993 	0.045482 	3.44816e-21 -0.00683299 	0.0468697 	1.91885e-21 -0.0061829 	0.0483604 	4.10494e-22 -0.00602348 	0.0489877 	6.58804e-25 -0.00634698 	0.0491112 	3.63288e-24 -0.00665451 	0.0491956 	6.5263e-24 -0.00597809 	0.0508034 	2.6994e-24 -0.00547838 	0.0521163 	0 -0.00537108 	0.0525096 	0 -0.00550261 	0.0527199 	-3.00092e-21 -0.00582946 	0.0527407 	-8.49685e-21 -0.00515911 	0.0545538 	-1.61585e-21 -0.00492175 	0.0552955 	0 -0.00481798 	0.0557139 	0 -0.00471685 	0.0561531 	0 -0.00505149 	0.0560911 	-1.07745e-23 -0.00448519 	0.0578034 	0 -0.00438363 	0.0582171 	0 -0.00428442 	0.0586519 	0 -0.00418752 	0.0591076 	0 -0.00433372 	0.059204 	2.53422e-21 -0.00397289 	0.0604293 	3.29611e-37 -0.00387877 	0.0608519 	9.64749e-37 -0.00378664 	0.0612948 	1.59877e-36 -0.00369645 	0.0617577 	2.23171e-36 -0.00369577 	0.062067 	2.97825e-36 -0.00354365 	0.0626739 	3.2397e-36 -0.00348947 	0.062949 	2.69427e-36 -0.00343598 	0.0632323 	2.15184e-36 -0.00338317 	0.0635234 	1.61237e-36 -0.00331288 	0.0639266 	8.89022e-37 -0.00328962 	0.0640675 	7.02932e-37 -0.00326648 	0.0642099 	5.16922e-37 -0.00324349 	0.0643539 	3.30992e-37 -0.00322062 	0.0644994 	1.45142e-37 -0.00322055 	0.0644897 	4.48068e-39 -0.00313596 	0.0649871 	-5.16516e-37 -0.00307339 	0.0654158 	-1.08356e-36 -0.00301199 	0.0658597 	-1.65139e-36 -0.00295174 	0.0663185 	-2.21999e-36 -0.00298238 	0.0661145 	-2.78869e-36 -0.00286197 	0.0669247 	-2.16712e-36 -0.00283205 	0.0673605 	-1.54688e-36 -0.0028028 	0.0678055 	-9.27056e-37 -0.0027742 	0.0682596 	-3.07631e-37 -0.00288984 	0.0675284 	0 -0.00274277 	0.0686854 	0 -0.00276629 	0.0691457 	0 -0.00278973 	0.069605 	0 -0.0028131 	0.0700633 	0 -0.00302424 	0.0687682 	0 -0.00284359 	0.0703261 	0 -0.00295338 	0.070845 	0 -0.00306178 	0.0713455 	0 -0.00316882 	0.0718281 	0 -0.00350021 	0.0698409 	0 -0.00324905 	0.0719142 	0 -0.00349629 	0.0725506 	0 -0.00373933 	0.07314 	0 -0.00400688 	0.073288 	0 -0.00446607 	0.0706628 	0 -0.00423136 	0.0730694 	0 -0.00450483 	0.0743285 	0 -0.00495592 	0.0750885 	0 -0.00546673 	0.0741964 	0 -0.00606526 	0.0708966 	0 -0.00588048 	0.0739071 	0 -0.00603573 	0.0763105 	0 -0.00679514 	0.0773872 	0 -0.00756046 	0.0743045 	0 -0.00829633 	0.0697436 	0 -0.0082333 	0.0739747 	0 -0.00819102 	0.0783842 	0 -0.00905421 	0.0786076 	0 -0.00988533 	0.0722514 	0 -0.0106209 	0.0653456 	0 -0.0108294 	0.0720996 	0 -0.0110914 	0.0791933 	0 -0.0105301 	0.0755095 	0 -0.011 	0.0652308 	0 -0.0112735 	0.0541588 	0 -0.0119962 	0.0663204 	0 -0.011466 	0.0665474 	0 -0.00995856 	0.0577986 	0 -0.00845117 	0.0490498 	0 -0.00715406 	0.0310501 	0 -0.00785488 	0.045934 	0 -0.00638063 	0.0373129 	0 -0.00490639 	0.0286917 	0 -0.00343215 	0.0200706 	0 0 	0 	0