# vtk DataFile Version 2.0
track0
ASCII
DATASET POLYDATA
POINTS 39011 float
0.05 8.57988e-20 2.57396e-18
0.05 0.00217391 -1.05592e-17
0.05 0.00217391 -1.05592e-17
0.05 0.00217391 -1.05592e-17
0.05 0.00217391 -1.05592e-17
0.05 0.00217391 -1.05592e-17
0.05 0.00217391 -1.38778e-17
0.0493333 0.00217543 -5.27356e-18
0.0486667 0.0021779 -5.41234e-18
0.048 0.00218187 -4.7278e-18
0.0473334 0.00218897 -8.69816e-19
0.0466667 0.00219866 0
0.046 0.00221082 -4.16334e-19
0.0453333 0.00222236 -2.63676e-18
0.0446667 0.00223447 -4.98719e-18
0.044 0.00224956 -9.99491e-18
0.0433333 0.00226814 -6.93889e-18
0.0426667 0.00229059 -3.19189e-18
0.0419999 0.00231103 -5.55541e-19
0.0413332 0.00233172 1.26058e-18
0.0406666 0.00235532 2.32261e-18
0.04 0.00238289 -6.93889e-18
0.0393333 0.00241564 -3.19189e-18
0.0386665 0.00244522 -3.67737e-18
0.0379997 0.00247553 -3.37185e-18
0.0373331 0.00250882 4.07517e-18
0.0366667 0.00254596 0
0.036 0.00258946 2.77556e-19
0.0353331 0.00262885 3.61078e-18
0.0346663 0.00267054 1.22474e-17
0.0339997 0.00271539 3.60655e-18
0.0333333 0.00276354 6.93889e-18
0.0326667 0.00281884 3.19189e-18
0.0319998 0.00287104 4.64947e-18
0.0313331 0.00292665 3.62448e-18
0.0306668 0.00298581 -2.93779e-18
0.03 0.00304873 0
0.0294496 0.00310565 -7.40999e-18
0.0288991 0.00316227 -9.26882e-18
0.0283489 0.00322156 -8.53688e-18
0.027799 0.00328361 -1.34627e-17
0.027378 0.00333333 -2.04276e-17
0.0272357 0.00335073 -2.21708e-17
0.0270935 0.00336832 -2.25261e-17
0.0269513 0.00338612 -2.56569e-17
0.0268091 0.00340412 -2.32365e-17
0.0266667 0.00342237 -2.47576e-17
0.026 0.00351068 -1.89859e-17
0.0253338 0.0036022 -1.32062e-17
0.0246682 0.00369852 -6.03941e-18
0.0240034 0.00379984 -6.66699e-18
0.0233333 0.00390731 -7.89476e-18
0.0226667 0.00403318 -7.41048e-18
0.0219994 0.0041558 -7.61469e-18
0.0213331 0.00428376 -1.01981e-17
0.0206681 0.00441784 -7.97918e-18
0.02 0.004569 -4.02011e-18
0.0193333 0.00474738 -5.80253e-18
0.0186665 0.0049251 -8.87935e-18
0.0179995 0.0051021 -1.05002e-17
0.0173359 0.00529165 -1.24553e-17
0.0166667 0.00551232 -1.38778e-17
0.0160558 0.00574319 -8.1886e-18
0.0154459 0.00597631 -6.86596e-18
0.0148402 0.0062205 -1.09764e-17
0.0142418 0.00648176 -1.49913e-17
0.0138509 0.00666667 -5.02534e-18
0.0137474 0.00671833 -4.85294e-18
0.0136442 0.00677069 8.7e-19
0.0135414 0.00682374 -5.89766e-18
0.013439 0.00687748 -8.67192e-18
0.0133333 0.00693408 -1.15476e-17
0.0126667 0.00730008 -1.07693e-17
0.0120125 0.00768792 -8.63962e-18
0.0113736 0.0081006 -7.74002e-18
0.0107522 0.00853894 -7.63959e-18
0.01 0.00913037 -6.93889e-18
0.00980639 0.0093043 -9.23082e-18
0.00961452 0.00948014 -2.12415e-17
0.00942442 0.00965789 -1.94789e-17
0.00923614 0.00983757 -1.30104e-17
0.0090694 0.01 -5.55112e-18
0.00858885 0.0104768 -2.10134e-17
0.0081316 0.010976 -2.32288e-17
0.0076991 0.0114968 -2.69823e-17
0.0072903 0.0120364 -2.17793e-17
0.00666667 0.0129318 -1.80411e-17
0.0066177 0.0130121 -1.95104e-17
0.00656903 0.0130926 -1.82037e-17
0.00652066 0.0131732 -1.41209e-17
0.00647259 0.0132541 -2.3269e-17
0.00642562 0.0133333 -1.80411e-17
0.00603145 0.014 -1.22125e-17
0.00567334 0.0146867 -1.71725e-17
0.00534564 0.0153885 -1.71777e-17
0.00504477 0.0161021 -2.76437e-17
0.0048091 0.0166667 -2.54569e-17
0.00453278 0.0173333 -2.47594e-17
0.00429553 0.0180149 -2.42454e-17
0.00408459 0.018705 -2.52245e-17
0.00388428 0.0193983 -2.72948e-17
0.00371991 0.02 -2.32916e-17
0.0036426 0.0202785 -2.39068e-17
0.00357179 0.0205588 -2.2018e-17
0.00350307 0.0208395 -2.10891e-17
0.00343598 0.0211207 -1.77336e-17
0.00333333 0.021562 -3.25213e-17
0.00325416 0.0219163 -3.48263e-17
0.00317722 0.022271 -3.49545e-17
0.00310244 0.0226263 -3.09156e-17
0.00302975 0.0229819 -2.40978e-17
0.00295999 0.0233333 -2.498e-17
0.00282358 0.024 -2.19269e-17
0.00270183 0.0246695 -2.26949e-17
0.0025876 0.0253403 -1.68722e-17
0.0024803 0.0260123 -1.53148e-17
0.0023778 0.0266667 -1.11022e-17
0.00226231 0.0273333 -1.36002e-17
0.00216535 0.0280029 -1.22745e-17
0.00208307 0.0286745 -6.24544e-18
0.00200637 0.0293468 -4.72905e-18
0.00192139 0.03 -6.93889e-18
0.00182208 0.0306667 -1.4988e-17
0.00174248 0.031336 -1.54087e-17
0.00168163 0.0320072 -1.44556e-17
0.00162287 0.0326787 -2.12859e-17
0.00155205 0.0333333 -2.62634e-17
0.00146575 0.034 -2.05439e-17
0.00140056 0.0346691 -1.85047e-17
0.00135485 0.0353397 -2.00763e-17
0.00131012 0.0360105 -1.55643e-17
0.00125146 0.0366667 -1.73497e-17
0.00117597 0.0373333 -1.58362e-17
0.00112319 0.0380022 -5.02406e-18
0.00108494 0.038672 -7.15597e-18
0.00104668 0.0393419 -1.28838e-17
0.000998898 0.04 -7.21461e-18
0.00093263 0.0406667 -9.18592e-18
0.000891055 0.0413353 -2.72958e-18
0.000857749 0.0420045 -5.41975e-18
0.000824444 0.0426736 -7.35853e-18
0.000786789 0.0433333 -1.44942e-17
0.000728536 0.044 -5.37659e-18
0.000697405 0.0446685 -9.34628e-18
0.000668395 0.0453371 -6.11243e-18
0.000639385 0.0460056 -3.0625e-18
0.000610702 0.0466667 -9.3437e-18
0.000559478 0.0473333 -2.51032e-18
0.000534217 0.0480015 -3.52395e-18
0.000508955 0.0486696 -5.41729e-18
0.000483694 0.0493378 -5.8361e-18
0.000458658 0.05 -2.1516e-18
0.000413578 0.0506667 -7.21131e-18
0.000391552 0.0513345 -1.23075e-17
0.000369526 0.0520023 -1.2702e-17
0.0003475 0.0526701 -1.27734e-17
0.000325627 0.0533333 -3.31784e-18
0.0002858 0.054 2.36899e-18
0.000266459 0.0546676 3.90436e-19
0.000247119 0.0553352 1.87048e-18
0.000227778 0.0560027 1.10568e-18
0.000208542 0.0566667 -1.73507e-18
0.000172963 0.0573333 4.63857e-18
0.000155641 0.0580007 1.96246e-18
0.00013832 0.0586681 -2.98614e-18
0.000120998 0.0593355 4.12717e-19
0.000103751 0.06 -1.7278e-19
8.30007e-05 0.0604246 3.6914e-18
7.26888e-05 0.0608496 4.76326e-18
6.23769e-05 0.0612746 4.7943e-18
5.20651e-05 0.0616996 7.6647e-18
1.24241e-05 0.0633333 1.52449e-17
9.93929e-06 0.0633864 1.20847e-17
8.64091e-06 0.0634394 1.40401e-17
7.34253e-06 0.0634925 1.58654e-17
6.04415e-06 0.0635456 1.97723e-17
0 0.0637926 1.98468e-17
0.05 0.00434783 5.94331e-18
0.0493333 0.00434932 8.0225e-18
0.0486667 0.00435376 9.40288e-18
0.048 0.00436052 8.18782e-18
0.0473334 0.00436894 1.10226e-17
0.0466667 0.00438028 1.28282e-17
0.046 0.00439566 1.34964e-17
0.0453334 0.00441261 1.69376e-17
0.0446668 0.00443115 1.82501e-17
0.0440002 0.00445129 1.5956e-17
0.0433333 0.00447535 8.30123e-18
0.0426667 0.00450465 1.40475e-17
0.042 0.00453433 1.598e-17
0.0413334 0.00456464 1.37389e-17
0.0406669 0.00459659 1.08165e-17
0.04 0.00463416 7.89508e-18
0.0393333 0.00467825 3.31138e-18
0.0386666 0.00472175 -1.61828e-18
0.0379999 0.00476464 -3.5706e-19
0.0373333 0.00480983 6.54822e-19
0.0366667 0.00486259 1.0567e-17
0.036 0.00492326 1.03078e-17
0.0353332 0.00498261 8.63053e-18
0.0346663 0.00504064 9.42135e-18
0.0339997 0.00510236 8.7483e-18
0.0333333 0.00517306 0
0.0326667 0.0052532 2.77556e-19
0.0319998 0.00533162 -2.56688e-18
0.0313327 0.00540829 -4.60925e-18
0.0306664 0.005491 -2.55239e-18
0.03 0.0055838 -1.38778e-17
0.0293333 0.00568775 -1.29063e-17
0.0286664 0.00578993 -1.0963e-17
0.028 0.00589554 -8.08433e-18
0.0273348 0.00600843 -1.00992e-17
0.0266667 0.00612981 0
0.0261328 0.00623718 -3.27431e-18
0.025599 0.00634466 -6.54866e-18
0.0250663 0.00645747 -1.03453e-17
0.0245348 0.00657588 -1.75793e-17
0.0241474 0.00666667 -1.45396e-17
0.0239846 0.00670625 -1.42684e-17
0.0238219 0.00674644 -7.75254e-18
0.0236594 0.00678724 -1.3033e-17
0.023497 0.00682865 -5.82375e-18
0.0233333 0.00687108 -1.42182e-17
0.0226667 0.00704887 -1.59021e-17
0.0220025 0.00723578 -1.76011e-17
0.0213415 0.00743352 -2.05882e-17
0.020684 0.00764258 -1.82488e-17
0.02 0.00787687 -2.33447e-17
0.0193333 0.0081305 -2.93031e-17
0.0186708 0.0083947 -2.82344e-17
0.0180128 0.00867007 -2.6395e-17
0.0173623 0.00896263 -2.39463e-17
0.0166667 0.00930418 -2.498e-17
0.0164085 0.00944334 -1.8471e-17
0.0161514 0.00958449 -2.27342e-17
0.0158956 0.00972787 -2.16143e-17
0.0156415 0.0098742 -1.91094e-17
0.0154288 0.01 -1.94289e-17
0.0150097 0.0102536 -2.54024e-17
0.0145968 0.0105172 -1.59819e-17
0.0141905 0.0107908 -2.71013e-17
0.0137911 0.0110745 -2.04836e-17
0.0133333 0.01142 -3.04673e-17
0.0128614 0.0118026 -2.99293e-17
0.0123997 0.0121976 -3.20859e-17
0.0119487 0.0126047 -3.13478e-17
0.0115092 0.0130243 -2.99203e-17
0.0112031 0.0133333 -3.56133e-17
0.0109625 0.0135861 -2.7658e-17
0.0107274 0.0138441 -3.08609e-17
0.0104981 0.0141071 -3.45823e-17
0.0102743 0.0143749 -3.2029e-17
0.01 0.0147172 -2.35422e-17
0.00970332 0.0151071 -2.40863e-17
0.00941554 0.0155036 -3.01167e-17
0.00913661 0.0159064 -2.97872e-17
0.00886608 0.0163148 -2.93367e-17
0.00864093 0.0166667 -1.80411e-17
0.00824608 0.0173017 -2.28561e-17
0.00787981 0.0179537 -1.81389e-17
0.00754078 0.0186202 -1.52429e-17
0.00722074 0.019296 -1.70241e-17
0.00691014 0.02 -2.15963e-17
0.00686144 0.0201172 -1.89423e-17
0.00681362 0.0202348 -1.83286e-17
0.00676649 0.0203526 -1.84875e-17
0.00671993 0.0204707 -1.21419e-17
0.00666667 0.0206076 -1.79112e-17
0.00645794 0.0211527 -2.07127e-17
0.00625975 0.0217018 -1.87188e-17
0.00607151 0.0222543 -1.48689e-17
0.00589265 0.02281 -1.39766e-17
0.00572983 0.0233333 -6.93889e-18
0.00552102 0.024 -1.29063e-17
0.00533438 0.0246732 -8.8233e-18
0.00516874 0.0253519 -1.03424e-17
0.00501097 0.0260325 -1.14566e-17
0.00486004 0.0266667 -1.59621e-17
0.00469774 0.0273333 -8.73476e-18
0.00455621 0.0280047 -7.70119e-18
0.00443185 0.0286795 -5.08674e-18
0.00431158 0.029355 -9.15949e-18
0.00419504 0.03 -4.21058e-18
0.00406937 0.0306667 -4.69519e-18
0.00396273 0.0313366 -5.7611e-18
0.00386103 0.0320074 -6.46546e-18
0.00376287 0.0326786 -8.62418e-18
0.00367053 0.0333333 -4.72488e-18
0.00360309 0.0337994 -5.39766e-18
0.00354171 0.0342663 -4.34441e-18
0.00348193 0.0347334 6.96391e-19
0.0034237 0.0352007 1.22695e-18
0.00333333 0.0359457 0
0.00331657 0.0360899 4.13542e-18
0.00329994 0.0362341 2.71994e-18
0.00328344 0.0363783 4.08024e-18
0.00326706 0.0365226 4.05298e-18
0.00325084 0.0366667 1.11022e-17
0.00317535 0.0373333 2.17881e-17
0.00310365 0.0380004 1.47791e-17
0.00303475 0.0386678 2.17072e-17
0.00296856 0.0393355 2.29848e-17
0.00290528 0.04 1.80411e-17
[...]
POINT_DATA 39011
 FIELD attributes 1
U 3 39011 float
-6.10552e-19 	-1.42565e-21 	0
-0.0143786 	3.26514e-05 	0 -0.0143786 	3.26514e-05 	0 -0.0143786 	3.26514e-05 	0 -0.0143786 	3.26514e-05 	0 -0.0143786 	3.26514e-05 	0 -0.0143786 	3.26514e-05 	0 -0.0147047 	5.45241e-05 	0 -0.0149355 	8.90558e-05 	-5.32361e-25 -0.0148949 	0.000158633 	-2.53926e-24 -0.0146469 	0.000212822 	-4.55542e-24 -0.0143294 	0.000261363 	-6.57959e-24 -0.0146474 	0.000253596 	2.56241e-22 -0.0148255 	0.000269308 	4.31118e-22 -0.0147286 	0.000333426 	4.25479e-22 -0.0145001 	0.000403971 	2.54214e-22 -0.0142094 	0.000478503 	-9.55333e-24 -0.0145063 	0.000444828 	9.92645e-23 -0.0145967 	0.000452814 	1.63856e-22 -0.0144541 	0.000511761 	1.74924e-22 -0.0142549 	0.000589656 	1.34686e-22 -0.0140014 	0.000687796 	4.03478e-23 -0.0142672 	0.000632791 	2.96141e-23 -0.0142415 	0.000647523 	1.84182e-23 -0.014066 	0.000702415 	7.00581e-24 -0.0138888 	0.000773913 	-1.67973e-24 -0.0136801 	0.000892678 	-2.32118e-24 -0.0139072 	0.00082147 	-1.75304e-24 -0.0137464 	0.000859314 	-1.23641e-23 -0.0135517 	0.00091192 	-2.43881e-23 -0.0133723 	0.000966187 	-3.64679e-23 -0.0132145 	0.00109607 	-4.91254e-23 -0.0133166 	0.0010424 	-1.22957e-22 -0.0131013 	0.00109288 	-1.01293e-22 -0.0129007 	0.00114534 	-7.91229e-23 -0.0127154 	0.00119985 	-5.64242e-23 -0.0125804 	0.00130092 	8.88964e-24 -0.0125407 	0.00128994 	-3.93573e-23 -0.0123658 	0.00133254 	-2.80372e-23 -0.012201 	0.00137677 	-1.61503e-23 -0.0120464 	0.0014227 	-3.67633e-24 -0.0119361 	0.00145923 	6.34459e-24 -0.0119015 	0.00147222 	9.92468e-24 -0.0118676 	0.00148534 	1.35487e-23 -0.0118345 	0.00149858 	1.72169e-23 -0.0118021 	0.00151196 	2.09297e-23 -0.0117348 	0.00155446 	7.74273e-24 -0.0115109 	0.0015812 	5.86101e-24 -0.0113187 	0.00163805 	6.74877e-24 -0.0111415 	0.00169799 	7.60957e-24 -0.0109801 	0.00176114 	8.44224e-24 -0.0106375 	0.00200841 	4.55814e-23 -0.0103135 	0.00189528 	3.38181e-22 -0.0101364 	0.00194677 	4.13727e-22 -0.00998276 	0.00201252 	4.77761e-22 -0.00973092 	0.00220175 	3.90287e-22 -0.00940788 	0.00251734 	1.61684e-22 -0.00912337 	0.00243145 	4.02053e-22 -0.00883727 	0.00234489 	6.42407e-22 -0.00854459 	0.00244086 	6.55684e-22 -0.00828447 	0.00273171 	4.45183e-22 -0.00806838 	0.00304953 	2.358e-22 -0.00785862 	0.00300341 	4.24113e-22 -0.00758916 	0.00305998 	4.56778e-22 -0.00730258 	0.00318793 	3.9565e-22 -0.00704826 	0.00333472 	3.31355e-22 -0.00690286 	0.00344516 	2.86582e-22 -0.00685977 	0.00348096 	2.74588e-22 -0.00681794 	0.00351758 	2.62473e-22 -0.00677737 	0.00355503 	2.50236e-22 -0.00672434 	0.00360295 	2.48905e-22 -0.00666415 	0.00365859 	2.52951e-22 -0.00628699 	0.00372722 	1.68907e-22 -0.00603209 	0.00389678 	9.21824e-23 -0.00580621 	0.00409512 	1.8255e-23 -0.00554662 	0.0043614 	2.46144e-23 -0.00527705 	0.00474055 	3.0195e-23 -0.00521739 	0.00478159 	1.74336e-23 -0.0051608 	0.00482551 	4.66592e-24 -0.0051061 	0.00487279 	2.78022e-23 -0.00505386 	0.00492328 	7.16191e-23 -0.00501 	0.00497109 	1.10816e-22 -0.00472078 	0.00515372 	1.1126e-22 -0.00446249 	0.00537355 	1.06267e-22 -0.00424209 	0.00559922 	9.57977e-23 -0.00405774 	0.00582586 	8.03166e-23 -0.00380428 	0.00623985 	4.8106e-23 -0.00378866 	0.00626646 	7.93613e-23 -0.00377339 	0.00629355 	1.10346e-22 -0.00375848 	0.0063211 	1.41062e-22 -0.00375851 	0.00634111 	7.57999e-23 -0.00376041 	0.00635992 	3.38255e-25 -0.0034033 	0.00652621 	-6.09951e-22 -0.00320516 	0.00686361 	-1.00848e-21 -0.00305942 	0.00725672 	-1.35893e-21 -0.00314387 	0.00753136 	-1.07573e-21 -0.00321318 	0.00775248 	-8.51353e-22 -0.00281635 	0.00809038 	-5.61592e-22 -0.00256372 	0.00838793 	-3.2647e-22 -0.00247777 	0.00857596 	-1.7353e-22 -0.00240061 	0.00878754 	-1.61896e-23 -0.00253464 	0.0091305 	9.99808e-24 -0.00236847 	0.00937399 	7.95263e-25 -0.00232082 	0.00948135 	0 -0.00228581 	0.00958032 	0 -0.0022524 	0.00968429 	0 -0.00220246 	0.00985494 	0 -0.00216629 	0.00998822 	0 -0.00213226 	0.0101286 	0 -0.0021003 	0.0102759 	0 -0.00207035 	0.0104298 	0 -0.00212477 	0.010384 	0 -0.0019073 	0.0104883 	0 -0.00184043 	0.0108081 	0 -0.00178179 	0.0111589 	0 -0.00178322 	0.0113839 	0 -0.00193556 	0.0111731 	0 -0.00163832 	0.0113142 	0 -0.00142063 	0.0115959 	0 -0.00137782 	0.0120754 	0 -0.00154714 	0.0118926 	0 -0.00172458 	0.011577 	0 -0.00140774 	0.0118372 	0 -0.0011077 	0.0122195 	0 -0.00108104 	0.012353 	0 -0.0013 	0.012018 	0 -0.0015004 	0.0115904 	0 -0.0011678 	0.0119845 	0 -0.000854718 	0.01254 	0 -0.000815289 	0.0122278 	0 -0.00105582 	0.0118105 	0 -0.00127594 	0.011268 	0 -0.000931745 	0.0118079 	0 -0.000694939 	0.0121679 	0 -0.000671269 	0.0117535 	0 -0.000816923 	0.0112517 	0 -0.00105335 	0.0105969 	0 -0.000702021 	0.0112908 	0 -0.000563449 	0.0113199 	0 -0.000542388 	0.0108968 	0 -0.000593544 	0.0103998 	0 -0.000842531 	0.00964212 	0 -0.000488711 	0.0104943 	0 -0.000441937 	0.010185 	0 -0.000423553 	0.00976134 	0 -0.00040517 	0.00933767 	0 -0.000653001 	0.00849859 	0 -0.000349035 	0.00923189 	0 -0.000333276 	0.00881506 	0 -0.000317516 	0.00839822 	0 -0.000301757 	0.00798139 	0 -0.000482792 	0.00713975 	0 -0.000250517 	0.00759572 	0 -0.000237176 	0.0071912 	0 -0.000223834 	0.00678667 	0 -0.000210492 	0.00638215 	0 -0.000334337 	0.00559649 	2.77369e-37 -0.000167096 	0.00576755 	0 -0.000155788 	0.00537725 	0 -0.00014448 	0.00498695 	0 -0.000133172 	0.00459664 	0 -0.000208866 	0.00391363 	2.80445e-40 -9.85027e-05 	0.00379519 	0 -8.86379e-05 	0.00341511 	0 -7.87731e-05 	0.00303503 	0 -6.89082e-05 	0.00265495 	0 -0.000102985 	0.00210738 	-8.82353e-38 -4.76799e-05 	0.00196507 	0 -4.17562e-05 	0.00172093 	0 -3.58326e-05 	0.00147679 	0 -2.99089e-05 	0.00123266 	0 -1.27216e-05 	0.000271493 	0 -6.18716e-06 	0.0002529 	0 -5.37892e-06 	0.000219863 	0 -4.57069e-06 	0.000186827 	0 -3.76245e-06 	0.00015379 	0 0 	0 	0
-0.0279404 	6.24777e-05 	0 -0.0281503 	0.000187665 	0 -0.0282526 	0.000286635 	-9.36344e-25 -0.02823 	0.000356518 	-2.91104e-24 -0.0280467 	0.000476958 	-2.40254e-23 -0.0277381 	0.000639951 	-6.11831e-23 -0.0278648 	0.00070859 	-3.0216e-22 -0.0279217 	0.000776195 	-4.51979e-22 -0.0278655 	0.000841998 	-4.60353e-22 -0.0275938 	0.000995574 	-3.1638e-22 -0.0272259 	0.00119661 	-9.26176e-23 -0.027271 	0.00121411 	-1.55755e-22 -0.0272901 	0.00124108 	-2.03987e-22 -0.0272056 	0.00130382 	-1.95399e-22 -0.0268242 	0.00151143 	-1.01427e-22 -0.0264196 	0.00174723 	7.04742e-24 -0.0263905 	0.00172169 	1.0492e-22 -0.0263583 	0.00169579 	2.02821e-22 -0.0262096 	0.00177675 	1.93083e-22 -0.025755 	0.00203836 	9.57171e-23 -0.0253371 	0.00230561 	-1.64587e-24 -0.0252454 	0.00224729 	-1.02654e-22 -0.0251473 	0.00218798 	-2.03681e-22 -0.0248569 	0.00230164 	-2.00302e-22 -0.0244085 	0.00258959 	-9.345e-23 -0.0239997 	0.00288512 	1.37336e-23 -0.0238593 	0.00280579 	1.31356e-22 -0.0237111 	0.00272496 	2.48945e-22 -0.0232208 	0.00288217 	2.59638e-22 -0.0227963 	0.00317483 	1.92573e-22 -0.0224167 	0.00349547 	1.14754e-22 -0.0222424 	0.0034077 	2.31883e-22 -0.0218777 	0.00346688 	2.61992e-22 -0.0214001 	0.0036319 	2.32172e-22 -0.0209492 	0.00380596 	2.0133e-22 -0.020614 	0.00414608 	7.80993e-23 -0.020424 	0.00411189 	7.18829e-23 -0.0200508 	0.00424636 	9.96538e-23 -0.0196948 	0.00438763 	1.27864e-22 -0.0193568 	0.00453601 	1.56533e-22 -0.0191235 	0.00464985 	1.77829e-22 -0.0190298 	0.00470173 	1.79838e-22 -0.0189381 	0.00475441 	1.81788e-22 -0.0188484 	0.0048079 	1.83679e-22 -0.0187607 	0.00486221 	1.8551e-22 -0.0186101 	0.00496286 	1.92941e-22 -0.0181348 	0.0051035 	1.74644e-22 -0.0177364 	0.00530565 	1.78831e-22 -0.0173676 	0.00552214 	1.80884e-22 -0.0169553 	0.0058082 	1.98698e-22 -0.0164087 	0.00624258 	2.52087e-22 -0.0159498 	0.00636009 	1.42817e-22 -0.0155194 	0.00649497 	3.27805e-23 -0.0149917 	0.00674223 	0 -0.0145594 	0.00714875 	3.58346e-23 -0.0141488 	0.0076274 	7.29588e-23 -0.0140146 	0.00769478 	3.12994e-23 -0.0138721 	0.00777454 	0 -0.0136958 	0.00788541 	0 -0.0135265 	0.00800125 	0 -0.0133898 	0.00810309 	0 -0.0130777 	0.00834793 	0 -0.0127878 	0.00861113 	0 -0.0125209 	0.00889299 	0 -0.0121967 	0.00920612 	0 -0.0118388 	0.00959971 	0 -0.0115108 	0.0098474 	0 -0.0112138 	0.0101232 	0 -0.0109039 	0.0104075 	0 -0.0106133 	0.010715 	0 -0.0104292 	0.010956 	0 -0.0102156 	0.0112145 	0 -0.0100156 	0.011487 	0 -0.00981383 	0.0117451 	-1.39219e-23 -0.00961331 	0.0119944 	-3.87449e-23 -0.0093775 	0.0123238 	-6.98834e-23 -0.00914682 	0.0126023 	-7.45905e-23 -0.00893619 	0.0129037 	-8.00806e-23 -0.00874994 	0.0132114 	-1.04396e-22 -0.00860818 	0.0134513 	-2.30299e-22 -0.00849926 	0.0136695 	-3.3776e-22 -0.00800386 	0.0142466 	-5.29112e-22 -0.00756703 	0.0148765 	-6.89307e-22 -0.00725856 	0.0153286 	-4.53552e-22 -0.00698355 	0.0158278 	-2.21623e-22 -0.00683445 	0.0164494 	5.8902e-23 -0.00675918 	0.0166135 	1.48373e-22 -0.00669688 	0.0167457 	1.77721e-22 -0.00664587 	0.0168499 	1.5422e-22 -0.00659598 	0.0169558 	1.31048e-22 -0.00653951 	0.0170803 	1.04601e-22 -0.00632718 	0.0175282 	1.03989e-22 -0.00613557 	0.018011 	1.04358e-22 -0.00596349 	0.0185264 	1.05649e-22 -0.00589623 	0.0189517 	1.14287e-22 -0.00599857 	0.0191509 	1.34524e-22 -0.00547206 	0.0197388 	8.53798e-23 -0.00498145 	0.0204096 	4.0018e-23 -0.00490256 	0.0211489 	1.98975e-22 -0.00511252 	0.0214823 	3.98777e-22 -0.00530153 	0.0217773 	5.83475e-22 -0.0047625 	0.0225906 	2.66663e-22 -0.004312 	0.0233973 	0 -0.00421719 	0.0236863 	0 -0.00434274 	0.024035 	3.14153e-25 -0.00459643 	0.0243842 	8.12335e-25 -0.00404959 	0.0254419 	6.53953e-26 -0.00391742 	0.0258357 	0 -0.00382918 	0.0261855 	0 -0.00374566 	0.0265574 	0 -0.00389726 	0.026934 	-1.37289e-22 -0.00362752 	0.0275951 	0 -0.00356562 	0.0278603 	0 -0.00350598 	0.0281375 	0 -0.00344854 	0.0284266 	0 -0.00336043 	0.0289053 	0 -0.0033447 	0.029002 	0 -0.00332914 	0.0290997 	0 -0.00331377 	0.0291984 	0 -0.00329859 	0.029298 	0 -0.00331443 	0.0292701 	0 -0.00319191 	0.0296957 	0 -0.00311088 	0.0301366 	0 -0.00303395 	0.0306028 	0 -0.00296095 	0.0310931 	0 -0.00306367 	0.0308208 	0 -0.00278791 	0.0314374 	0 -0.00271045 	0.0319349 	0 -0.00263676 	0.0324584 	0 -0.00256683 	0.0330059 	0 -0.00280271 	0.0320749 	0 -0.00244889 	0.0329271 	0 -0.00232619 	0.0335356 	0 -0.00225537 	0.0341089 	0 -0.00229728 	0.034119 	0 -0.00253868 	0.0330401 	0 -0.00218697 	0.0340504 	0 -0.00196432 	0.0349165 	0 -0.00189695 	0.0355308 	0 -0.00203832 	0.0349753 	0 -0.00228234 	0.0337522 	0 -0.00193696 	0.0349167 	0 -0.00163634 	0.036106 	7.38094e-38 -0.00157449 	0.0367522 	6.1662e-37 -0.0018018 	0.0356263 	1.1609e-36 -0.00204703 	0.0342653 	1.69823e-36 -0.00171141 	0.0355765 	1.09644e-36 -0.00138355 	0.037022 	5.00885e-37 -0.0013444 	0.0374807 	7.59332e-40 -0.00159867 	0.0360878 	1.62468e-39 -0.00184631 	0.0345954 	2.47905e-39 -0.00152264 	0.0360447 	1.53468e-39 -0.00120624 	0.037634 	5.99788e-40 -0.00118158 	0.0378867 	-3.62239e-37 -0.00144327 	0.0363761 	-9.1204e-37 -0.00169848 	0.0347559 	-1.45522e-36 -0.00138736 	0.0363364 	-8.60544e-37 -0.00108318 	0.0380625 	-2.71654e-37 -0.00107426 	0.0381375 	0 -0.00135492 	0.0365104 	0 -0.00162868 	0.0347579 	0 -0.00132906 	0.0364702 	0 -0.00103643 	0.0383349 	0 -0.00103843 	0.0382321 	0 -0.00135823 	0.0364778 	0 -0.0016696 	0.0345709 	0 -0.0013795 	0.0364329 	0 -0.00109714 	0.0384589 	0 -0.00109191 	0.0381237 	0 -0.00148245 	0.0362067 	0 -0.00186066 	0.0340885 	0 -0.00157962 	0.0361553 	0 -0.00132503 	0.0381918 	0 -0.00130118 	0.0375042 	0 -0.00174811 	0.035474 	0 -0.0022327 	0.0330222 	0 -0.0019678 	0.0354255 	0 -0.00177458 	0.0369092 	0 -0.00172394 	0.035856 	0 -0.0021179 	0.0337519 	0 -0.00275205 	0.0307287 	0 -0.00253083 	0.0337589 	0 -0.00237387 	0.0340051 	0 -0.00225213 	0.0322612 	0 -0.00236543 	0.0300081 	0 -0.0031749 	0.0260011 	0 -0.00306995 	0.0302749 	0 -0.00276976 	0.0274125 	0 -0.00246529 	0.0243991 	0 -0.00216082 	0.0213858 	0 -0.00268711 	0.0163433 	0 -0.00258486 	0.0185959 	0 -0.00203647 	0.0146507 	0 -0.00148809 	0.0107055 	0 -0.000939699 	0.00676035 	0 0 	0 	0
-0.0405687 	8.90755e-05 	0 -0.0405358 	0.000285754 	-2.71564e-23 -0.0404529 	0.000502713 	-6.20024e-23 -0.0403893 	0.000720194 	-9.70325e-23 -0.0403449 	0.000938194 	-1.32247e-22 -0.0402787 	0.00114817 	-1.67972e-22 -0.0401352 	0.00133054 	-2.115e-22 -0.0399565 	0.00153416 	-2.19159e-22 -0.0397962 	0.00173925 	-2.25802e-22 -0.0396544 	0.00194579 	-2.31416e-22 -0.039627 	0.0019921 	-2.32435e-22 -0.0396099 	0.00202478 	-2.33975e-22 -0.0395932 	0.00205749 	-2.35504e-22 -0.0395771 	0.00209024 	-2.37021e-22 -0.0395614 	0.00212303 	-2.38528e-22 -0.0395345 	0.00216156 	-2.41424e-22 -0.0392718 	0.00235508 	-2.02775e-22 -0.0390224 	0.00254992 	-1.64374e-22 -0.038792 	0.00274726 	-1.25648e-22 -0.0385809 	0.00294715 	-8.65934e-23 -0.0382783 	0.00320726 	-5.33899e-23 -0.0379819 	0.00338921 	-9.32948e-23 -0.0376757 	0.00357917 	-8.66237e-23 -0.0373886 	0.00377261 	-8.04307e-23 -0.0371211 	0.0039696 	-7.47269e-23 -0.0366196 	0.00431011 	4.31699e-23 -0.0362797 	0.00445379 	9.79065e-23 -0.0359385 	0.00464526 	1.23129e-22 -0.0356171 	0.00484132 	1.48894e-22 -0.0352166 	0.00510042 	1.47117e-22 -0.0346088 	0.00550377 	8.05806e-23 -0.0342154 	0.00562736 	4.71121e-23 -0.0338434 	0.00577171 	2.3282e-23 -0.0335104 	0.00597818 	3.35963e-23 -0.032887 	0.00638616 	6.04519e-23 -0.0322923 	0.00681602 	8.72477e-23 -0.0318759 	0.00693905 	4.72111e-23 -0.031476 	0.00706841 	7.01031e-24 -0.0308492 	0.00736706 	0 -0.0302666 	0.00780235 	1.36104e-23 -0.0297162 	0.00826643 	2.74123e-23 -0.0293072 	0.00840701 	3.88093e-24 -0.0286931 	0.00871367 	0 -0.0280693 	0.00906935 	0 -0.0274851 	0.00944559 	0 -0.0269964 	0.00980373 	0 -0.0269823 	0.00981624 	0 -0.0269683 	0.00982877 	0 -0.0269543 	0.00984132 	0 -0.0269378 	0.00985521 	0 -0.0269163 	0.0098718 	0 -0.0262894 	0.0102419 	0 -0.0257095 	0.0106431 	0 -0.0251715 	0.0110707 	0 -0.0245793 	0.0115727 	0 -0.0238422 	0.012225 	0 -0.0232418 	0.0125972 	0 -0.0226668 	0.0130112 	0 -0.0219677 	0.0135266 	0 -0.0213312 	0.0140873 	0 -0.0207132 	0.0147434 	0 -0.0207052 	0.0147543 	0 -0.0206971 	0.0147651 	0 -0.0206888 	0.014776 	0 -0.0206779 	0.0147872 	0 -0.020667 	0.0147984 	0 -0.0199384 	0.0153856 	0 -0.0192833 	0.0160388 	0 -0.0186757 	0.016746 	8.35664e-25 -0.0180085 	0.0174698 	7.41883e-24 -0.0172235 	0.0185073 	1.61182e-23 -0.0171453 	0.0186126 	1.61575e-23 -0.0170686 	0.0187195 	1.62024e-23 -0.0169891 	0.0188198 	1.22725e-23 -0.016905 	0.0189099 	2.61625e-24 -0.016826 	0.0189973 	-6.59098e-24 -0.0160801 	0.0197958 	1.97583e-23 -0.0154107 	0.0206812 	4.98585e-23 -0.0147888 	0.021502 	-1.52414e-23 -0.0142723 	0.022345 	-1.61147e-22 -0.0139359 	0.0231065 	-2.97044e-22 -0.0138326 	0.0233202 	-3.84732e-22 -0.0137315 	0.0235301 	-4.52942e-22 -0.0136307 	0.0236933 	-3.72165e-22 -0.013532 	0.0238588 	-2.9201e-22 -0.0134237 	0.0240471 	-2.02863e-22 -0.0130242 	0.0247006 	8.08292e-23 -0.012661 	0.0253995 	3.56451e-22 -0.0123326 	0.0261414 	6.24225e-22 -0.0121178 	0.0266766 	4.50328e-22 -0.0119683 	0.0271097 	1.75357e-22 -0.0113648 	0.0281039 	-3.19591e-23 -0.0108112 	0.0291755 	-2.42201e-22 -0.010454 	0.0298479 	1.05253e-22 -0.0102647 	0.0305677 	8.69716e-22 -0.0101813 	0.0312613 	1.75458e-21 -0.00983403 	0.0321069 	2.43913e-21 -0.00959914 	0.03268 	2.1783e-21 -0.00940425 	0.033185 	1.64528e-21 -0.00921954 	0.0337091 	1.12377e-21 -0.00896006 	0.0345135 	3.66577e-22 -0.00889189 	0.0347502 	2.74927e-22 -0.00882533 	0.03499 	1.83466e-22 -0.00876035 	0.0352329 	9.21933e-23 -0.00869901 	0.0354751 	2.78066e-24 -0.00875082 	0.0355167 	2.9156e-24 -0.00830961 	0.0363765 	-1.04488e-22 -0.00806084 	0.0372946 	-3.15538e-22 -0.00783237 	0.0382561 	-5.3049e-22 -0.0077235 	0.0390552 	-7.48877e-22 -0.00795298 	0.0392021 	-9.62346e-22 -0.0073236 	0.0402808 	-6.35847e-22 -0.00679641 	0.0414293 	-1.07877e-22 -0.00661355 	0.0425579 	1.26322e-21 -0.00689873 	0.0427187 	2.33289e-21 -0.00716777 	0.0428465 	3.36602e-21 -0.00653181 	0.0441417 	1.8998e-21 -0.00592121 	0.0455336 	4.53547e-22 -0.00577758 	0.0461613 	7.53593e-25 -0.00609421 	0.0462935 	3.49759e-24 -0.00639507 	0.0463873 	6.16575e-24 -0.00575673 	0.0478957 	2.61822e-24 -0.00526963 	0.0491725 	0 -0.00517215 	0.0495477 	0 -0.00532281 	0.0497496 	-3.05377e-21 -0.00564648 	0.0497919 	-8.27685e-21 -0.00501053 	0.0515037 	-1.69921e-21 -0.00477623 	0.0522436 	0 -0.00468211 	0.052647 	0 -0.00459791 	0.0530616 	-1.76699e-25 -0.00493602 	0.0530339 	-1.03498e-23 -0.00438944 	0.0546849 	0 -0.00429739 	0.0550898 	0 -0.0042076 	0.0555144 	0 -0.00412002 	0.0559583 	0 -0.00427639 	0.0560758 	2.42631e-21 -0.00393152 	0.0572606 	3.14453e-37 -0.00384652 	0.0576806 	9.2164e-37 -0.00376346 	0.0581197 	1.52779e-36 -0.0036823 	0.0585774 	2.13291e-36 -0.0036862 	0.0589048 	2.83933e-36 -0.00355311 	0.0594522 	3.08994e-36 -0.00350973 	0.0597001 	2.61861e-36 -0.00346689 	0.059954 	2.14953e-36 -0.00342459 	0.0602139 	1.68266e-36 -0.00337034 	0.0605591 	1.07912e-36 -0.00334367 	0.0607365 	8.52191e-37 -0.00331721 	0.0609163 	6.25387e-37 -0.00329097 	0.0610985 	3.98704e-37 -0.00326495 	0.0612831 	1.72142e-37 -0.00326957 	0.0612639 	4.39008e-39 -0.00318381 	0.0617966 	-4.7474e-37 -0.00312892 	0.0622382 	-1.01349e-36 -0.00307521 	0.0626941 	-1.55299e-36 -0.00302266 	0.063164 	-2.0932e-36 -0.00307361 	0.0628951 	-2.63341e-36 -0.00294105 	0.0637515 	-2.03873e-36 -0.00291758 	0.0642097 	-1.44553e-36 -0.00289477 	0.0646766 	-8.527e-37 -0.00287262 	0.0651519 	-2.60241e-37 -0.0030141 	0.0643242 	0 -0.00283982 	0.0655469 	0 -0.00286796 	0.0660399 	0 -0.00289599 	0.0665315 	0 -0.00292392 	0.0670218 	0 -0.00316727 	0.0655818 	0 -0.00293813 	0.0672339 	0 -0.00304985 	0.0677967 	0 -0.00316006 	0.0683411 	0 -0.0032688 	0.0688678 	0 -0.00363881 	0.0666653 	0 -0.00335777 	0.0687321 	0 -0.00355233 	0.0695544 	0 -0.00379313 	0.0702015 	0 -0.00408617 	0.0700718 	0 -0.00456049 	0.0674508 	0 -0.00429559 	0.0698542 	0 -0.0044639 	0.0713638 	0 -0.0049076 	0.0722001 	0 -0.00544263 	0.0708982 	0 -0.006053 	0.0675863 	0 -0.00583178 	0.0706166 	0 -0.00581811 	0.0733664 	0 -0.00656575 	0.0745468 	0 -0.00734674 	0.0708322 	0 -0.00808951 	0.0662498 	0 -0.00798456 	0.0705235 	0 -0.00790417 	0.0750037 	0 -0.00852158 	0.074734 	0 -0.00936573 	0.0683883 	0 -0.0101066 	0.0614695 	0 -0.0102718 	0.0682845 	0 -0.0104983 	0.0754846 	0 -0.00977648 	0.0703336 	0 -0.0100805 	0.0607354 	0 -0.0103726 	0.0497068 	0 -0.01106 	0.0619362 	0 -0.0102419 	0.0596152 	0 -0.00873939 	0.0508696 	0 -0.00723689 	0.0421239 	0 -0.00591629 	0.0257279 	0 -0.00648549 	0.0380644 	0 -0.00527032 	0.0309324 	0 -0.00405515 	0.0238004 	0 -0.00283998 	0.0166683 	0 0 	0 	0