# vtk DataFile Version 2.0
track0
ASCII
DATASET POLYDATA
POINTS 41142 float
0.05 8.57988e-20 2.57396e-18
0.05 0.00217391 -1.05592e-17
0.05 0.00217391 -1.05592e-17
0.05 0.00217391 -1.05592e-17
0.05 0.00217391 -1.05592e-17
0.05 0.00217391 -1.05592e-17
0.05 0.00217391 -1.38778e-17
0.0493333 0.00217502 -8.74301e-18
0.0486667 0.00217718 -1.16573e-17
0.048 0.00218093 -9.93354e-18
0.0473334 0.00218784 -7.11294e-18
0.0466667 0.00219732 -1.80411e-17
0.046 0.00220922 -1.84575e-17
0.0453333 0.00222058 -2.10248e-17
0.0446667 0.00223256 -2.14702e-17
0.0440001 0.00224756 -2.31922e-17
0.0433333 0.00226604 -2.498e-17
0.0426667 0.00228835 -2.81719e-17
0.0419999 0.00230872 -2.72703e-17
0.0413332 0.00232935 -2.71731e-17
0.0406666 0.00235294 -2.75107e-17
0.04 0.00238051 -3.19189e-17
0.0393333 0.00241324 -2.81719e-17
0.0386665 0.00244283 -3.17799e-17
0.0379997 0.00247317 -2.80089e-17
0.0373331 0.00250652 -2.99024e-17
0.0366667 0.00254374 -2.498e-17
0.036 0.00258731 -3.16414e-17
0.0353331 0.0026268 -2.9349e-17
0.0346663 0.00266859 -2.94054e-17
0.0339997 0.00271357 -3.26673e-17
0.0333333 0.00276187 -3.19189e-17
0.0326667 0.00281732 -3.63598e-17
0.0319998 0.00286968 -3.87186e-17
0.0313331 0.00292547 -3.80109e-17
0.0306668 0.00298482 -3.45114e-17
0.03 0.00304796 -3.05311e-17
0.0294499 0.00310504 -3.10028e-17
0.0288998 0.00316182 -3.00867e-17
0.0283499 0.00322128 -2.94095e-17
0.0278004 0.0032835 -3.42772e-17
0.0273799 0.00333333 -3.01372e-17
0.0272373 0.00335083 -2.21668e-17
0.0270947 0.00336854 -3.36254e-17
0.026952 0.00338645 -3.25938e-17
0.0268095 0.00340457 -2.46233e-17
0.0266667 0.00342293 -3.03073e-17
0.026 0.00351158 -3.14737e-17
0.0253338 0.00360344 -2.56931e-17
0.0246682 0.00370012 -1.81825e-17
0.0240034 0.00380181 -1.9157e-17
0.0233333 0.00390969 -1.62254e-17
0.0226667 0.00403606 -2.12931e-17
0.0219994 0.00415921 -2.2192e-17
0.0213331 0.00428766 -2.09534e-17
0.0206681 0.00442224 -1.94393e-17
0.02 0.00457404 -1.03155e-17
0.0193333 0.00475312 -1.24518e-17
0.0186665 0.00493157 -1.89186e-17
0.0179995 0.00510932 -2.06303e-17
0.017336 0.0052997 -1.72925e-17
0.0166667 0.00552124 -1.80411e-17
0.0160624 0.00575032 -1.5144e-17
0.0154591 0.00598163 -1.68944e-17
0.0148599 0.00622369 -2.49113e-17
0.0142677 0.00648235 -2.89354e-17
0.0138778 0.00666667 -3.42134e-17
0.0137689 0.00672093 -2.98687e-17
0.0136604 0.00677596 -2.41369e-17
0.0135523 0.00683174 -3.36713e-17
0.0134445 0.00688829 -2.5837e-17
0.0133333 0.00694798 -2.96118e-17
0.0126667 0.00731502 -3.7162e-17
0.0120123 0.00770362 -3.43397e-17
0.0113733 0.00811683 -3.48866e-17
0.0107514 0.00855555 -3.24047e-17
0.01 0.009146 -3.19189e-17
0.00980943 0.0093168 -2.86673e-17
0.00962051 0.00948942 -3.23587e-17
0.00943325 0.00966384 -3.61102e-17
0.00924771 0.00984009 -3.37981e-17
0.0090827 0.01 -3.88578e-17
0.00859949 0.0104767 -3.76671e-17
0.00813939 0.0109757 -3.7781e-17
0.00770387 0.0114963 -4.22566e-17
0.00729199 0.0120358 -3.98195e-17
0.00666667 0.0129267 -3.747e-17
0.00661665 0.013008 -4.31044e-17
0.00656693 0.0130895 -4.59628e-17
0.00651752 0.0131712 -3.91062e-17
0.00646841 0.0132531 -3.85276e-17
0.00642044 0.0133333 -4.30211e-17
0.00602286 0.014 -2.88658e-17
0.00566164 0.0146871 -3.03569e-17
0.00533111 0.0153894 -2.86632e-17
0.00502732 0.0161037 -2.91835e-17
0.00479039 0.0166667 -3.19221e-17
0.00451194 0.0173333 -3.41789e-17
0.004273 0.0180152 -2.85278e-17
0.00406011 0.0187056 -2.93933e-17
0.00385808 0.0193992 -3.14671e-17
0.00369275 0.02 -2.16324e-17
0.00362087 0.0202583 -1.67508e-17
0.00355466 0.020518 -1.82409e-17
0.00349031 0.0207782 -2.18637e-17
0.0034274 0.0210388 -2.06311e-17
0.00333333 0.021438 -2.46036e-17
0.00324724 0.0218171 -2.7899e-17
0.00316379 0.0221967 -2.24868e-17
0.00308289 0.0225769 -2.67849e-17
0.00300446 0.0229577 -2.13644e-17
0.00292949 0.0233333 -2.498e-17
0.00279198 0.024 -2.33147e-17
0.00266997 0.0246697 -2.65116e-17
0.00255569 0.0253407 -2.5813e-17
0.00244852 0.0260129 -2.71903e-17
0.00234564 0.0266667 -2.35922e-17
0.00222956 0.0273333 -2.26208e-17
0.00213236 0.028003 -2.37235e-17
0.0020508 0.0286748 -2.12178e-17
0.00197495 0.0293472 -2.65342e-17
0.00189002 0.03 -2.498e-17
0.00179057 0.0306667 -2.95597e-17
0.0017112 0.031336 -2.89397e-17
0.00165089 0.0320074 -2.999e-17
0.00159267 0.0326789 -2.89687e-17
0.00152228 0.0333333 -2.35373e-17
0.00143625 0.034 -2.73615e-17
0.00137169 0.0346691 -2.72368e-17
0.0013269 0.0353398 -2.89761e-17
0.00128302 0.0360105 -2.18543e-17
0.00122512 0.0366667 -2.45916e-17
0.00115028 0.0373333 -1.8222e-17
0.00109847 0.0380022 -1.31361e-17
0.00106064 0.038672 -1.65234e-17
0.0010228 0.0393418 -2.02096e-17
0.00097605 0.04 -1.96666e-17
0.000910777 0.0406667 -1.40068e-17
0.000870436 0.0413353 -1.0675e-17
0.00083776 0.0420044 -9.92988e-18
0.000805083 0.0426734 -6.35019e-18
0.000768638 0.0433333 -1.97393e-18
0.000711699 0.044 3.67201e-18
0.000681954 0.0446684 9.41438e-18
0.000653758 0.0453369 1.40106e-17
0.000625561 0.0460054 1.63667e-17
0.00059767 0.0466667 2.25969e-17
0.000548057 0.0473333 1.581e-17
0.000523776 0.0480014 2.42489e-17
0.000499495 0.0486695 2.37263e-17
0.000475214 0.0493375 2.1226e-17
0.000451137 0.05 2.70043e-17
0.000407942 0.0506667 2.88803e-17
0.000387049 0.0513344 3.00271e-17
0.000366156 0.0520021 2.99725e-17
0.000345263 0.0526699 3.51055e-17
0.000324504 0.0533333 3.27663e-17
0.000286819 0.054 3.46332e-17
0.000268752 0.0546675 2.53665e-17
0.000250685 0.055335 2.71977e-17
0.000232619 0.0560025 2.46984e-17
0.000214641 0.0566667 2.46226e-17
0.000181446 0.0573333 1.91961e-17
0.000165531 0.0580006 2.13747e-17
0.000149615 0.0586679 1.54022e-17
0.0001337 0.0593352 2.19237e-17
0.000117846 0.06 1.92327e-17
9.42764e-05 0.0605244 1.59818e-17
8.27471e-05 0.0610491 1.34054e-17
7.12177e-05 0.0615739 1.63802e-17
5.96884e-05 0.0620986 1.10768e-17
3.2561e-05 0.0633333 6.88467e-18
2.60488e-05 0.0634861 1.04459e-17
2.2685e-05 0.063639 4.98158e-18
1.93212e-05 0.0637919 6.28263e-18
1.59575e-05 0.0639448 4.46119e-18
0 0.0646701 8.3844e-19
0.05 0.00434783 5.94331e-18
0.0493333 0.00434873 3.16625e-18
0.0486667 0.0043527 2.46575e-18
0.048 0.00435906 1.59588e-18
0.0473334 0.0043671 6.8562e-18
0.0466667 0.00437805 1.14441e-17
0.046 0.004393 9.33752e-18
0.0453334 0.00440963 1.69426e-17
0.0446668 0.0044279 1.40868e-17
0.0440003 0.00444779 1.52271e-17
0.0433333 0.00447159 2.00723e-17
0.0426667 0.0045006 1.78369e-17
0.042 0.00453006 2.28904e-17
0.0413334 0.00456024 2.44942e-17
0.0406669 0.00459205 1.7016e-17
0.04 0.00462946 2.03929e-17
0.0393333 0.00467337 2.34423e-17
0.0386666 0.00471674 1.81659e-17
0.0379999 0.00475957 1.76756e-17
0.0373333 0.00480469 2.28507e-17
0.0366667 0.00485737 3.14359e-17
0.036 0.00491795 2.9356e-17
0.0353332 0.00497726 2.6118e-17
0.0346663 0.00503528 2.6039e-17
0.0339998 0.00509699 2.88354e-17
0.0333333 0.00516769 3.19189e-17
0.0326667 0.00524783 2.52576e-17
0.0319998 0.00532627 2.3454e-17
0.0313327 0.00540298 2.23789e-17
0.0306664 0.00548571 2.5212e-17
0.03 0.00557858 2.498e-17
0.0293333 0.00568259 2.52576e-17
0.0286664 0.00578484 2.61601e-17
0.028 0.00589048 2.17445e-17
0.0273348 0.00600343 1.83366e-17
0.0266667 0.00612489 2.08167e-17
0.0261283 0.00623324 1.6162e-17
0.0255901 0.00634171 1.08135e-17
0.0250529 0.00645562 1.35295e-17
0.024517 0.00657522 1.56966e-17
0.0241275 0.00666667 1.3943e-17
0.0239687 0.00670538 1.35136e-17
0.02381 0.00674466 8.92066e-18
0.0236514 0.00678453 1.19603e-17
0.023493 0.00682498 1.08363e-17
0.0233333 0.0068664 7.99405e-18
0.0226667 0.0070442 1.32491e-17
0.0220025 0.00723114 1.01622e-17
0.0213415 0.0074289 1.61631e-18
0.020684 0.00763796 1.8663e-18
0.02 0.00787218 -3.58058e-18
0.0193333 0.0081257 -5.18663e-19
0.0186708 0.00838974 2.6436e-18
0.0180127 0.00866491 2.54446e-18
0.0173621 0.00895717 3.81834e-18
0.0166667 0.00929818 6.93889e-18
0.0164058 0.00943855 9.2801e-18
0.0161461 0.00958091 1.33569e-17
0.0158876 0.00972554 1.5869e-17
0.0156309 0.00987316 1.69905e-17
0.0154161 0.01 4.16334e-18
0.0149996 0.0102518 3.39495e-18
0.0145891 0.0105133 6.84327e-19
0.014185 0.0107847 3.43885e-18
0.0137878 0.0110659 8.65107e-18
0.0133333 0.0114077 4.42106e-18
0.0128563 0.0117929 -6.34549e-18
0.0123896 0.0121904 -6.4288e-18
0.0119337 0.0126003 -5.30194e-18
0.0114894 0.0130227 1.96302e-18
0.0111806 0.0133333 3.46913e-18
0.0109445 0.0135805 1.66508e-18
0.0107137 0.0138327 3.27694e-18
0.0104884 0.0140897 -3.37001e-18
0.0102684 0.0143514 2.63623e-18
0.01 0.0146839 3.15884e-18
0.00969575 0.0150804 -7.44557e-18
0.00940074 0.0154839 -9.97974e-19
0.00911492 0.0158939 4.24952e-18
0.00883782 0.0163099 7.13959e-18
0.00860841 0.0166667 8.32667e-18
0.00822006 0.0172886 6.91615e-18
0.00785931 0.0179269 4.38352e-19
0.00752491 0.0185794 1.82894e-18
0.00720901 0.019241 2.96134e-18
0.00687112 0.02 1.02252e-17
0.00683023 0.0200983 1.28986e-17
0.00678995 0.0201969 1.82505e-17
0.00675018 0.0202957 1.90884e-17
0.00671081 0.0203947 1.75841e-17
0.00666667 0.020507 1.79197e-17
0.00644734 0.0210722 1.93318e-17
0.00623962 0.0216419 1.86297e-17
0.00604288 0.0222154 1.83901e-17
0.00585644 0.0227924 2.00843e-17
0.00568769 0.0233333 2.498e-17
0.00547833 0.024 2.10942e-17
0.00529145 0.0246733 2.10138e-17
0.00512594 0.0253522 1.95661e-17
0.00496832 0.026033 2.04025e-17
0.00481772 0.0266667 1.96675e-17
0.00465572 0.0273333 2.16914e-17
0.00451472 0.0280048 2.10776e-17
0.00439033 0.0286795 2.33628e-17
0.00427014 0.0293549 1.88739e-17
0.00415443 0.03 2.01432e-17
0.0040297 0.0306667 1.68814e-17
0.00392417 0.0313366 1.3732e-17
0.00382294 0.0320073 9.84111e-18
0.00372534 0.0326785 1.49684e-17
0.0036336 0.0333333 7.82663e-18
0.00357355 0.0337543 1.48727e-17
0.00351844 0.0341759 8.72774e-18
0.00346467 0.0345978 4.66252e-18
0.00341221 0.0350197 1.02237e-17
0.00333333 0.0356703 1.80411e-17
0.00331009 0.0358696 1.38391e-17
0.00328711 0.0360689 1.65764e-17
0.00326438 0.0362682 1.3763e-17
0.00324192 0.0364676 1.51133e-17
0.00321974 0.0366667 1.80411e-17
0.0031449 0.0373333 2.10942e-17
0.00307424 0.0380005 2.20649e-17
0.00300646 0.0386679 1.88845e-17
0.00294146 0.0393356 1.60007e-17
0.00287944 0.04 1.11022e-17
0.00281416 0.0406667 1.13798e-17
[...]
POINT_DATA 41142
 FIELD attributes 1
U 3 41142 float
-6.45144e-19 	-1.70248e-21 	0
-0.0152363 	2.53423e-05 	0 -0.0152363 	2.53423e-05 	0 -0.0152363 	2.53423e-05 	0 -0.0152363 	2.53423e-05 	0 -0.0152363 	2.53423e-05 	0 -0.0152363 	2.53423e-05 	0 -0.01557 	5.0501e-05 	0 -0.0158074 	8.87831e-05 	-3.92322e-25 -0.0157676 	0.000163581 	-1.87675e-24 -0.0155142 	0.000220589 	-3.36814e-24 -0.0151901 	0.000271095 	-4.8654e-24 -0.0155148 	0.000264285 	1.906e-22 -0.0156974 	0.000282028 	3.21287e-22 -0.015597 	0.00035097 	3.17446e-22 -0.0153632 	0.000425819 	1.89827e-22 -0.0150679 	0.000504343 	-6.02746e-24 -0.0153699 	0.000469495 	3.46651e-23 -0.015461 	0.000478481 	5.52068e-23 -0.0153112 	0.000541805 	5.10305e-23 -0.0151068 	0.000624944 	2.74716e-23 -0.0148514 	0.000728962 	-1.62378e-23 -0.0151199 	0.00067096 	-1.19136e-23 -0.0150899 	0.000686709 	-2.89555e-23 -0.0149045 	0.000745566 	-5.82741e-23 -0.0147205 	0.000822203 	-8.88462e-23 -0.0145131 	0.000948505 	-1.22822e-22 -0.0147403 	0.00087286 	-9.27362e-23 -0.0145696 	0.000913002 	-8.77016e-23 -0.0143634 	0.00096927 	-8.60677e-23 -0.0141737 	0.00102732 	-8.47187e-23 -0.0140194 	0.00116599 	-1.11258e-22 -0.0141176 	0.00110845 	-1.9436e-22 -0.0138892 	0.00116231 	-1.56056e-22 -0.0136765 	0.00121829 	-1.17171e-22 -0.0134802 	0.00127647 	-7.76823e-23 -0.0133439 	0.00138445 	1.08565e-23 -0.0132969 	0.00137247 	-4.69259e-23 -0.0131115 	0.00141781 	-3.34174e-23 -0.0129368 	0.0014649 	-1.92301e-23 -0.0127731 	0.0015138 	-4.33983e-24 -0.0126565 	0.00155267 	7.61539e-24 -0.0126197 	0.00156656 	1.19011e-23 -0.0125838 	0.00158058 	1.62397e-23 -0.0125487 	0.00159474 	2.06315e-23 -0.0125144 	0.00160904 	2.50771e-23 -0.0124437 	0.00165465 	9.23544e-24 -0.0122047 	0.00168277 	6.85062e-24 -0.012001 	0.00174328 	7.77043e-24 -0.0118134 	0.00180708 	8.65935e-24 -0.0116426 	0.00187432 	9.51605e-24 -0.0112848 	0.00213921 	5.15818e-23 -0.0109336 	0.00201781 	3.81919e-22 -0.0107447 	0.00207148 	4.68833e-22 -0.0105823 	0.00214139 	5.41349e-22 -0.0103186 	0.00234471 	4.4059e-22 -0.00998468 	0.00268204 	1.81768e-22 -0.00967691 	0.00258954 	4.48488e-22 -0.00936752 	0.00249636 	7.1519e-22 -0.00905417 	0.00259785 	7.29366e-22 -0.00878676 	0.00290848 	4.94933e-22 -0.00856649 	0.00324789 	2.6168e-22 -0.00834249 	0.00319811 	4.66104e-22 -0.00806026 	0.00325639 	5.01889e-22 -0.00776201 	0.00339042 	4.34767e-22 -0.00749745 	0.00354399 	3.64276e-22 -0.00734502 	0.00366032 	3.14866e-22 -0.00729725 	0.00370013 	3.00881e-22 -0.00725095 	0.00374089 	2.8675e-22 -0.00720614 	0.00378263 	2.72472e-22 -0.00714783 	0.00383632 	2.70847e-22 -0.00708171 	0.00389893 	2.75497e-22 -0.00667694 	0.00396531 	1.82879e-22 -0.00640975 	0.00414435 	9.87735e-23 -0.00617232 	0.00435465 	1.92603e-23 -0.00590267 	0.0046383 	2.61772e-23 -0.00562452 	0.00504106 	3.22567e-23 -0.00556279 	0.00508252 	1.86073e-23 -0.00550418 	0.00512689 	4.95144e-24 -0.00544779 	0.00517525 	3.03213e-23 -0.0053941 	0.0052272 	7.78944e-23 -0.00534882 	0.00527655 	1.2062e-22 -0.0050414 	0.00546769 	1.21478e-22 -0.00476698 	0.0056984 	1.16362e-22 -0.00453259 	0.00593711 	1.05226e-22 -0.00433656 	0.00617797 	8.85538e-23 -0.00406896 	0.00661615 	5.38144e-23 -0.00405214 	0.00664433 	8.9165e-23 -0.00403572 	0.00667302 	1.24211e-22 -0.00401967 	0.00670223 	1.58954e-22 -0.00401996 	0.00672378 	8.47683e-23 -0.00402208 	0.00674419 	4.02142e-25 -0.00363515 	0.00691424 	-6.80994e-22 -0.00342259 	0.00727252 	-1.12589e-21 -0.00327005 	0.00768876 	-1.50685e-21 -0.00336056 	0.00798533 	-1.19435e-21 -0.00343477 	0.00822348 	-9.47665e-22 -0.00300806 	0.00858366 	-6.22938e-22 -0.00274289 	0.00889531 	-3.65665e-22 -0.00264977 	0.00909768 	-1.98601e-22 -0.00256635 	0.00932579 	-2.66011e-23 -0.00269603 	0.00968592 	1.79494e-23 -0.0025305 	0.0099292 	1.46229e-24 -0.00248214 	0.0100365 	0 -0.00244654 	0.0101347 	0 -0.00241247 	0.0102377 	0 -0.00236263 	0.0104024 	0 -0.00231972 	0.0105536 	0 -0.00227956 	0.0107138 	0 -0.00224204 	0.0108827 	0 -0.00220707 	0.01106 	0 -0.00227042 	0.0110074 	0 -0.00202284 	0.0111029 	0 -0.00194986 	0.0114491 	0 -0.00188599 	0.0118297 	0 -0.00189619 	0.012049 	0 -0.00205886 	0.0118246 	0 -0.00173828 	0.0119753 	0 -0.00148947 	0.0122681 	0 -0.0014425 	0.0127888 	0 -0.00163443 	0.0125624 	0 -0.00182345 	0.0122237 	0 -0.00148287 	0.0125051 	0 -0.00116067 	0.0129199 	0 -0.00112865 	0.0130179 	0 -0.00136133 	0.0126577 	0 -0.00157398 	0.0121972 	0 -0.00121815 	0.0126249 	0 -0.000883555 	0.0132287 	0 -0.000840791 	0.012855 	0 -0.00109479 	0.0124051 	0 -0.00132701 	0.0118205 	0 -0.000961026 	0.0124064 	0 -0.000720365 	0.0127538 	0 -0.000695556 	0.0123146 	0 -0.000836623 	0.0117785 	0 -0.00108419 	0.0110733 	0 -0.000713426 	0.011825 	0 -0.000577453 	0.0118235 	0 -0.000555775 	0.0113796 	0 -0.000599845 	0.0108613 	0 -0.000858037 	0.0100464 	0 -0.000487994 	0.0109663 	0 -0.000447761 	0.0106156 	0 -0.000429248 	0.0101767 	0 -0.000410734 	0.00973778 	0 -0.000657947 	0.00884099 	0 -0.000349013 	0.00960278 	0 -0.000333551 	0.00917734 	0 -0.000318088 	0.0087519 	0 -0.000302626 	0.00832646 	0 -0.000481771 	0.00743563 	0 -0.000247825 	0.00792044 	0 -0.000235132 	0.00751479 	0 -0.00022244 	0.00710914 	0 -0.000209747 	0.00670349 	0 -0.00033231 	0.00587876 	2.90535e-37 -0.000164792 	0.00608831 	0 -0.000154411 	0.00570481 	0 -0.000144031 	0.00532131 	0 -0.000133651 	0.0049378 	0 -0.000210358 	0.00422474 	2.93115e-40 -9.93249e-05 	0.00416454 	0 -9.06128e-05 	0.00379926 	0 -8.19006e-05 	0.00343397 	0 -7.31885e-05 	0.00306868 	0 -0.000112228 	0.00249681 	-1.05349e-37 -5.09846e-05 	0.00232057 	0 -4.47496e-05 	0.00203678 	0 -3.85145e-05 	0.00175299 	0 -3.22794e-05 	0.0014692 	0 -3.14456e-05 	0.000737797 	0 -1.5061e-05 	0.000684577 	0 -1.31162e-05 	0.000596175 	0 -1.11713e-05 	0.000507773 	0 -9.22639e-06 	0.000419371 	0 0 	0 	0
-0.0296334 	4.01239e-05 	0 -0.0298549 	0.000177934 	0 -0.0299637 	0.000285922 	-6.95167e-25 -0.0299418 	0.000361009 	-2.15717e-24 -0.0297547 	0.000488478 	-1.77792e-23 -0.0294374 	0.00066045 	-4.53854e-23 -0.0295693 	0.000737421 	-2.2455e-22 -0.0296281 	0.000811981 	-3.35022e-22 -0.0295702 	0.000882658 	-3.4087e-22 -0.0292904 	0.00104504 	-2.30773e-22 -0.0289095 	0.00125803 	-5.85927e-23 -0.0289532 	0.00127969 	-6.85448e-23 -0.0289698 	0.00131123 	-7.73056e-23 -0.0288814 	0.00137854 	-8.16651e-23 -0.0284868 	0.0015981 	-5.55765e-23 -0.0280664 	0.00184863 	-2.39832e-23 -0.0280298 	0.00182348 	-4.82921e-23 -0.0279902 	0.00179799 	-7.26017e-23 -0.0278358 	0.00188387 	-9.57273e-23 -0.0273617 	0.00216236 	-9.18838e-23 -0.0269269 	0.00244685 	-8.76762e-23 -0.0268225 	0.00238583 	-2.75948e-22 -0.0267114 	0.00232379 	-4.64313e-22 -0.0264066 	0.00244495 	-4.4872e-22 -0.0259392 	0.0027519 	-2.29456e-22 -0.0255139 	0.00306692 	-9.62538e-24 -0.0253569 	0.00298268 	1.52762e-22 -0.0251918 	0.00289686 	3.15083e-22 -0.0246742 	0.00306326 	3.28268e-22 -0.0242315 	0.00337696 	2.40658e-22 -0.0238374 	0.00371907 	1.40396e-22 -0.0236442 	0.00362516 	2.79196e-22 -0.0232559 	0.00368652 	3.15341e-22 -0.022749 	0.00386269 	2.78836e-22 -0.0222707 	0.00404853 	2.41122e-22 -0.0219246 	0.00441313 	9.30433e-23 -0.021716 	0.00437571 	8.51262e-23 -0.0213169 	0.00452028 	1.15981e-22 -0.0209364 	0.00467223 	1.47353e-22 -0.0205757 	0.00483191 	1.79263e-22 -0.0203279 	0.00495411 	2.02917e-22 -0.0202315 	0.0050082 	2.04768e-22 -0.020137 	0.00506309 	2.06556e-22 -0.0200446 	0.00511882 	2.08279e-22 -0.0199542 	0.00517537 	2.09936e-22 -0.0197993 	0.00528046 	2.18124e-22 -0.0192948 	0.00543092 	1.9781e-22 -0.0188729 	0.00564612 	2.02059e-22 -0.0184828 	0.0058766 	2.03917e-22 -0.0180489 	0.00618082 	2.23264e-22 -0.0174737 	0.00664504 	2.831e-22 -0.0169841 	0.00676834 	1.60671e-22 -0.0165251 	0.00691012 	3.73885e-23 -0.0159661 	0.00717205 	0 -0.015514 	0.00760736 	4.02742e-23 -0.0150846 	0.00811793 	8.13649e-23 -0.0149403 	0.00818918 	3.48538e-23 -0.0147873 	0.00827403 	0 -0.0145992 	0.00839283 	0 -0.0144186 	0.00851701 	0 -0.0142731 	0.00862618 	0 -0.0139456 	0.008885 	0 -0.0136415 	0.00916313 	0 -0.0133618 	0.00946089 	0 -0.0130209 	0.00979282 	0 -0.0126451 	0.0102092 	0 -0.0122936 	0.0104722 	0 -0.0119756 	0.0107655 	0 -0.0116433 	0.0110697 	0 -0.0113325 	0.0113998 	0 -0.0111366 	0.0116583 	0 -0.0109148 	0.0119284 	0 -0.010707 	0.0122129 	0 -0.0104963 	0.0124829 	-1.84364e-23 -0.010286 	0.0127435 	-5.15635e-23 -0.0100398 	0.0130859 	-9.28916e-23 -0.00978754 	0.0133861 	-9.92409e-23 -0.00955776 	0.0137118 	-1.06701e-22 -0.00935523 	0.0140443 	-1.37705e-22 -0.00920005 	0.0143062 	-2.85789e-22 -0.00908179 	0.0145437 	-4.11702e-22 -0.00856239 	0.0151499 	-6.36331e-22 -0.00810336 	0.0158122 	-8.26167e-22 -0.0077762 	0.0162869 	-5.30054e-22 -0.00748418 	0.0168109 	-2.39013e-22 -0.00728218 	0.0175138 	1.45646e-22 -0.00721468 	0.0176622 	2.43184e-22 -0.00715832 	0.0177817 	2.72336e-22 -0.0071117 	0.0178755 	2.41191e-22 -0.00706595 	0.0179707 	2.10382e-22 -0.00701511 	0.0180799 	1.75864e-22 -0.00677295 	0.0185744 	1.60368e-22 -0.00655542 	0.0191103 	1.46328e-22 -0.00636108 	0.0196848 	1.3366e-22 -0.00628791 	0.0201566 	1.35722e-22 -0.00640032 	0.0203809 	1.61208e-22 -0.00583298 	0.0210157 	1.01225e-22 -0.0052998 	0.0217389 	4.23253e-23 -0.00520929 	0.022498 	1.69862e-22 -0.00543218 	0.0228594 	3.55708e-22 -0.00563264 	0.0231792 	5.27341e-22 -0.00505259 	0.0240592 	2.3295e-22 -0.00458934 	0.0248937 	0 -0.00448518 	0.0252053 	0 -0.00458693 	0.0255738 	2.90422e-25 -0.00485517 	0.0259502 	8.1746e-25 -0.00426796 	0.027094 	2.95726e-26 -0.00414734 	0.0274758 	0 -0.00405 	0.0278518 	0 -0.00395785 	0.0282524 	0 -0.00408777 	0.0286547 	-1.21376e-22 -0.00382865 	0.0292937 	0 -0.00376649 	0.0295483 	0 -0.00370635 	0.0298138 	0 -0.00364819 	0.0300899 	0 -0.00356154 	0.0305314 	0 -0.00353686 	0.030672 	0 -0.00351257 	0.0308148 	0 -0.00348867 	0.0309598 	0 -0.00346515 	0.0311068 	0 -0.00348752 	0.0310654 	0 -0.00333913 	0.0315244 	0 -0.00324887 	0.0319932 	0 -0.00316306 	0.0324897 	0 -0.00308151 	0.0330126 	0 -0.00319846 	0.0326673 	0 -0.0028945 	0.0333434 	0 -0.00280759 	0.0338672 	0 -0.00272473 	0.0344195 	0 -0.00265529 	0.0349513 	0 -0.00289971 	0.0339514 	0 -0.00252966 	0.0348713 	0 -0.00238781 	0.0355227 	0 -0.00230746 	0.0361206 	0 -0.00235223 	0.0360854 	0 -0.00259958 	0.0349311 	0 -0.0022356 	0.0360166 	0 -0.0019972 	0.0369432 	0 -0.00191992 	0.0375748 	0 -0.00206324 	0.036954 	0 -0.00230999 	0.0356522 	0 -0.00195692 	0.036896 	0 -0.00164739 	0.0381595 	7.60876e-38 -0.00157535 	0.0388128 	6.47865e-37 -0.00180058 	0.0376143 	1.22125e-36 -0.00204484 	0.0361744 	1.78778e-36 -0.00170658 	0.0375656 	1.15716e-36 -0.0013757 	0.0390917 	5.3281e-37 -0.00132707 	0.0395597 	7.82528e-40 -0.00157574 	0.0380885 	1.6633e-39 -0.00181842 	0.0365203 	2.5338e-39 -0.00149746 	0.0380463 	1.57806e-39 -0.00118317 	0.03971 	6.31383e-40 -0.00115189 	0.0399823 	-3.96572e-37 -0.00140375 	0.0383975 	-9.75849e-37 -0.00164998 	0.0367081 	-1.54884e-36 -0.00134709 	0.0383581 	-9.26077e-37 -0.00105032 	0.0401477 	-3.08935e-37 -0.00103851 	0.0402589 	0 -0.00130538 	0.0385644 	0 -0.00156643 	0.0367525 	0 -0.00128062 	0.0385231 	0 -0.00100074 	0.0404361 	0 -0.00100569 	0.0403933 	0 -0.00130833 	0.0385804 	0 -0.00160398 	0.0366265 	0 -0.00133333 	0.0385319 	0 -0.00106907 	0.0405862 	0 -0.00107693 	0.0403457 	0 -0.00144795 	0.0383794 	0 -0.00180869 	0.0362276 	0 -0.00155293 	0.0383195 	0 -0.00130514 	0.0405741 	0 -0.00128144 	0.0399649 	0 -0.00175777 	0.0377814 	0 -0.00222488 	0.0353083 	0 -0.00199147 	0.037715 	0 -0.00180392 	0.0395503 	0 -0.00175784 	0.0385401 	0 -0.00221876 	0.0362686 	0 -0.00283685 	0.0332273 	0 -0.00265365 	0.0362369 	0 -0.00250977 	0.0370077 	0 -0.00239433 	0.0353055 	0 -0.00262717 	0.0328311 	0 -0.00341911 	0.0287762 	0 -0.0033579 	0.0330054 	0 -0.00309196 	0.0309574 	0 -0.00279444 	0.0279786 	0 -0.00249692 	0.0249997 	0 -0.00318352 	0.0195967 	0 -0.00308519 	0.0222245 	0 -0.0024238 	0.0174601 	0 -0.0017624 	0.0126957 	0 -0.00110101 	0.00793126 	0 -0.000164907 	0.000792316 	0 -0.000173871 	0.001009 	0 -0.000137645 	0.000798782 	0 -0.00010142 	0.000588559 	0 -6.51945e-05 	0.000378336 	0 0 	0 	0
-0.0430714 	4.28364e-05 	0 -0.0430403 	0.000254979 	-2.01607e-23 -0.0429583 	0.000488212 	-4.60408e-23 -0.042897 	0.000721953 	-7.20597e-23 -0.0428565 	0.0009562 	-9.82171e-23 -0.042792 	0.00118093 	-1.24761e-22 -0.0426448 	0.00137672 	-1.53559e-22 -0.0424597 	0.00159562 	-1.53912e-22 -0.0422944 	0.00181604 	-1.53475e-22 -0.0421491 	0.00203799 	-1.52239e-22 -0.0420984 	0.00212869 	-1.5141e-22 -0.0420856 	0.00215557 	-1.51684e-22 -0.0420732 	0.00218248 	-1.51954e-22 -0.042061 	0.00220941 	-1.5222e-22 -0.0420492 	0.00223637 	-1.52482e-22 -0.0420282 	0.00226795 	-1.53534e-22 -0.0417509 	0.00247561 	-1.25717e-22 -0.0414895 	0.00268484 	-9.78761e-23 -0.0412485 	0.00289674 	-6.98495e-23 -0.0410283 	0.00311134 	-4.16345e-23 -0.0407158 	0.00338769 	-1.87243e-23 -0.0404021 	0.00358415 	-3.72622e-24 -0.0400792 	0.00378782 	4.79531e-24 -0.0397769 	0.0039952 	1.35392e-23 -0.0394956 	0.00420637 	2.25101e-23 -0.0389721 	0.0045674 	1.70308e-23 -0.0386112 	0.00472421 	2.11015e-22 -0.0382503 	0.00492908 	2.54565e-22 -0.0379107 	0.00513886 	2.99407e-22 -0.037493 	0.00541274 	2.74657e-22 -0.0368513 	0.00584319 	7.40193e-23 -0.0364321 	0.00597648 	4.75048e-23 -0.036037 	0.00613334 	3.02729e-23 -0.0356845 	0.00635382 	4.23008e-23 -0.0350315 	0.00678603 	7.48924e-23 -0.0344038 	0.00724483 	1.07769e-22 -0.0339589 	0.00737625 	5.86969e-23 -0.0335318 	0.00751445 	9.42249e-24 -0.0328716 	0.00783063 	7.60879e-26 -0.0322582 	0.00829742 	1.67136e-23 -0.0316781 	0.00879274 	3.31961e-23 -0.0312407 	0.00894175 	5.12847e-24 -0.0305931 	0.00926518 	0 -0.0299309 	0.00964447 	0 -0.0293111 	0.0100457 	0 -0.0287493 	0.0104599 	0 -0.0287426 	0.010466 	0 -0.0287359 	0.010472 	0 -0.0287293 	0.0104781 	0 -0.0287214 	0.0104848 	0 -0.0287111 	0.0104928 	0 -0.0280496 	0.01089 	0 -0.0274342 	0.0113171 	0 -0.0268639 	0.0117722 	0 -0.0262412 	0.0123045 	0 -0.0254583 	0.0129999 	0 -0.02482 	0.013394 	0 -0.0242142 	0.0138307 	0 -0.0234696 	0.0143788 	0 -0.0227922 	0.0149752 	0 -0.0220944 	0.0157184 	0 -0.0220937 	0.0157192 	0 -0.022093 	0.0157199 	0 -0.0220921 	0.0157206 	0 -0.0220911 	0.0157214 	0 -0.0220901 	0.0157222 	0 -0.0213261 	0.0163507 	0 -0.0206302 	0.0170427 	0 -0.01999 	0.017794 	-3.02464e-26 -0.0192765 	0.0185626 	-3.56544e-25 -0.01844 	0.0196613 	-7.86344e-25 -0.0183467 	0.0197857 	-7.88289e-25 -0.0182556 	0.0199121 	-7.90578e-25 -0.0181609 	0.0200308 	-6.97759e-24 -0.0180605 	0.0201382 	-2.17219e-23 -0.0179671 	0.0202419 	-3.57083e-23 -0.0171876 	0.021082 	-3.18875e-23 -0.0164875 	0.0220123 	-2.46578e-23 -0.0158325 	0.0228748 	-5.23283e-23 -0.0152585 	0.0237448 	-1.10095e-22 -0.014857 	0.0246401 	-1.88342e-22 -0.0147639 	0.0248347 	-2.52288e-22 -0.0146725 	0.0250255 	-3.01568e-22 -0.0145799 	0.0251735 	-2.39425e-22 -0.0144891 	0.0253233 	-1.77697e-22 -0.0143908 	0.0254905 	-1.10104e-22 -0.0139375 	0.0262131 	2.53e-22 -0.013527 	0.0269892 	6.03734e-22 -0.0131575 	0.0278159 	9.4247e-22 -0.0129155 	0.0284101 	6.48041e-22 -0.0127471 	0.0288922 	2.28235e-22 -0.012099 	0.0299664 	-1.29549e-22 -0.0115052 	0.0311245 	-4.92166e-22 -0.0111295 	0.0318191 	-9.0547e-23 -0.0108936 	0.0325883 	6.5612e-22 -0.0107995 	0.0333362 	1.62821e-21 -0.0104543 	0.0341815 	2.2731e-21 -0.0102187 	0.03475 	2.03689e-21 -0.0100209 	0.0352509 	1.55395e-21 -0.0098327 	0.0357696 	1.08112e-21 -0.00957294 	0.0365473 	4.09001e-22 -0.00948186 	0.0368507 	3.06493e-22 -0.00939335 	0.0371591 	2.04247e-22 -0.00930734 	0.0374723 	1.0226e-22 -0.00922716 	0.0377843 	2.85899e-24 -0.00929231 	0.0378381 	3.03019e-24 -0.0087799 	0.0387654 	-8.40192e-23 -0.00850812 	0.0397535 	-2.94179e-22 -0.00825832 	0.0407887 	-5.08264e-22 -0.00816269 	0.041596 	-7.25747e-22 -0.00840152 	0.0417496 	-9.37926e-22 -0.00772714 	0.0429131 	-6.1421e-22 -0.00713035 	0.0441583 	-1.60387e-22 -0.00695219 	0.0453102 	1.24503e-21 -0.00724692 	0.045472 	2.36752e-21 -0.00752495 	0.0455997 	3.45184e-21 -0.0068462 	0.0469915 	1.91974e-21 -0.00619437 	0.0484866 	4.08633e-22 -0.00603426 	0.0491139 	6.54512e-25 -0.00635804 	0.049237 	3.63885e-24 -0.00666585 	0.0493209 	6.54234e-24 -0.00598775 	0.0509331 	2.70302e-24 -0.00548747 	0.0522477 	0 -0.00537974 	0.0526417 	0 -0.00551045 	0.0528524 	-2.99894e-21 -0.00583741 	0.0528721 	-8.50702e-21 -0.00516555 	0.0546898 	-1.61254e-21 -0.00492803 	0.0554316 	0 -0.00482383 	0.0558506 	0 -0.00472228 	0.0562905 	0 -0.00505645 	0.0562272 	-1.07937e-23 -0.00448926 	0.0579423 	0 -0.00438728 	0.0583564 	0 -0.00428766 	0.0587917 	0 -0.00419034 	0.0592478 	0 -0.00433613 	0.0593432 	2.53942e-21 -0.00397456 	0.0605704 	3.30233e-37 -0.00388004 	0.0609931 	9.66608e-37 -0.00378751 	0.0614361 	1.60187e-36 -0.00369692 	0.0618993 	2.23603e-36 -0.00369607 	0.0622076 	2.9844e-36 -0.00354301 	0.0628174 	3.24636e-36 -0.00348831 	0.0630939 	2.69728e-36 -0.0034343 	0.0633785 	2.15125e-36 -0.00338097 	0.0636712 	1.60821e-36 -0.00330987 	0.0640774 	8.7878e-37 -0.00328682 	0.0642164 	6.94876e-37 -0.0032639 	0.0643569 	5.11049e-37 -0.00324111 	0.064499 	3.273e-37 -0.00321845 	0.0646426 	1.43628e-37 -0.00321822 	0.0646333 	4.4843e-39 -0.00313369 	0.0651289 	-5.18428e-37 -0.00307078 	0.065557 	-1.08672e-36 -0.00300905 	0.0660004 	-1.65581e-36 -0.00294846 	0.0664587 	-2.22568e-36 -0.0029782 	0.0662578 	-2.79563e-36 -0.0028583 	0.0670656 	-2.17288e-36 -0.00282811 	0.0675005 	-1.55144e-36 -0.00279857 	0.0679445 	-9.3042e-37 -0.00276969 	0.0683977 	-3.09802e-37 -0.0028842 	0.0676708 	0 -0.00273828 	0.0688248 	0 -0.00276159 	0.0692836 	0 -0.00278483 	0.0697415 	0 -0.00280801 	0.0701984 	0 -0.00301776 	0.0689098 	0 -0.00283915 	0.0704633 	0 -0.00294885 	0.0709802 	0 -0.00305717 	0.0714788 	0 -0.00316414 	0.0719595 	0 -0.00349389 	0.0699818 	0 -0.00324609 	0.072049 	0 -0.00349342 	0.0726829 	0 -0.00373655 	0.0732698 	0 -0.00400307 	0.0734298 	0 -0.0044616 	0.0708045 	0 -0.00422819 	0.0732112 	0 -0.0045061 	0.0744592 	0 -0.00495752 	0.075216 	0 -0.0054674 	0.0743415 	0 -0.00606539 	0.0710422 	0 -0.00588219 	0.0740519 	0 -0.00604467 	0.0764402 	0 -0.00680461 	0.0775125 	0 -0.00756941 	0.074457 	0 -0.00830497 	0.069897 	0 -0.00824377 	0.0741262 	0 -0.00820315 	0.0785328 	0 -0.00907717 	0.0787772 	0 -0.00990775 	0.0724207 	0 -0.0106431 	0.0655157 	0 -0.0108535 	0.072267 	0 -0.011117 	0.0793561 	0 -0.0105704 	0.0757048 	0 -0.0110391 	0.0654232 	0 -0.0113119 	0.0543495 	0 -0.0120361 	0.0665082 	0 -0.0115185 	0.0668442 	0 -0.0100109 	0.0580953 	0 -0.00850331 	0.0493464 	0 -0.00720721 	0.0312783 	0 -0.0079138 	0.0462712 	0 -0.00642839 	0.0375862 	0 -0.00494297 	0.0289011 	0 -0.00345756 	0.020216 	0 0 	0 	0