# vtk DataFile Version 2.0
track0
ASCII
DATASET POLYDATA
POINTS 41143 float
0.05 8.57988e-20 2.57396e-18
0.05 0.00217391 -1.05592e-17
0.05 0.00217391 -1.05592e-17
0.05 0.00217391 -1.05592e-17
0.05 0.00217391 -1.05592e-17
0.05 0.00217391 -1.05592e-17
0.05 0.00217391 -1.38778e-17
0.0493333 0.00217502 -8.74301e-18
0.0486667 0.00217718 -9.92262e-18
0.048 0.00218093 -1.16683e-17
0.0473334 0.00218784 -2.09907e-17
0.0466667 0.00219732 -1.94289e-17
0.046 0.00220922 -1.42941e-17
0.0453333 0.00222057 -1.3739e-17
0.0446667 0.00223255 -1.67865e-17
0.0440001 0.00224755 -1.62533e-17
0.0433333 0.00226603 -1.80411e-17
0.0426667 0.00228834 -1.56819e-17
0.0419999 0.00230871 -1.54741e-17
0.0413332 0.00232934 -1.67648e-17
0.0406666 0.00235293 -1.64084e-17
0.04 0.00238051 -2.498e-17
0.0393333 0.00241323 -2.33147e-17
0.0386665 0.00244282 -2.62288e-17
0.0379997 0.00247317 -2.55802e-17
0.0373331 0.00250651 -2.43512e-17
0.0366667 0.00254374 -3.05311e-17
0.036 0.00258731 -2.81719e-17
0.0353331 0.0026268 -2.55326e-17
0.0346663 0.00266858 -2.94054e-17
0.0339997 0.00271356 -3.78282e-17
0.0333333 0.00276187 -4.30211e-17
0.0326667 0.00281731 -4.53804e-17
0.0319998 0.00286968 -4.08003e-17
0.0313331 0.00292546 -4.56436e-17
0.0306668 0.00298482 -3.90217e-17
0.03 0.00304796 -3.60822e-17
0.0294499 0.00310503 -4.2105e-17
0.0288998 0.00316182 -4.0495e-17
0.0283499 0.00322128 -4.32873e-17
0.0278004 0.0032835 -4.67673e-17
0.0273799 0.00333333 -4.88722e-17
0.0272373 0.00335083 -3.88202e-17
0.0270946 0.00336854 -4.19521e-17
0.026952 0.00338645 -4.64716e-17
0.0268095 0.00340457 -4.12766e-17
0.0266667 0.00342293 -3.72462e-17
0.026 0.00351158 -3.84126e-17
0.0253338 0.00360344 -3.67953e-17
0.0246682 0.00370012 -3.55297e-17
0.0240034 0.00380181 -3.85859e-17
0.0233333 0.00390969 -4.12054e-17
0.0226667 0.00403607 -5.04364e-17
0.0219994 0.00415921 -4.7866e-17
0.0213331 0.00428766 -4.8362e-17
0.0206681 0.00442224 -4.6848e-17
0.02 0.00457405 -3.98059e-17
0.0193333 0.00475313 -4.67994e-17
0.0186665 0.00493157 -4.89294e-17
0.0179995 0.00510933 -5.02941e-17
0.017336 0.00529971 -5.02522e-17
0.0166667 0.00552125 -4.30211e-17
0.0160625 0.00575033 -4.70629e-17
0.0154591 0.00598164 -5.0548e-17
0.0148599 0.00622369 -4.98914e-17
0.0142678 0.00648235 -4.90583e-17
0.0138778 0.00666667 -5.91935e-17
0.0137689 0.00672094 -5.3461e-17
0.0136604 0.00677596 -5.60559e-17
0.0135523 0.00683175 -6.55902e-17
0.0134446 0.0068883 -4.96027e-17
0.0133333 0.006948 -5.59797e-17
0.0126667 0.00731504 -5.17337e-17
0.0120123 0.00770364 -4.89114e-17
0.0113733 0.00811685 -4.91981e-17
0.0107514 0.00855557 -4.94049e-17
0.01 0.00914602 -4.71845e-17
0.00980943 0.00931681 -4.53207e-17
0.00962051 0.00948943 -4.62365e-17
0.00943325 0.00966384 -4.86002e-17
0.00924772 0.00984009 -5.18392e-17
0.00908271 0.01 -5.55112e-17
0.0085995 0.0104767 -4.87693e-17
0.00813939 0.0109757 -5.84242e-17
0.00770387 0.0114963 -6.16855e-17
0.00729199 0.0120358 -5.09217e-17
0.00666667 0.0129266 -4.30211e-17
0.00661664 0.013008 -5.00433e-17
0.00656692 0.0130895 -4.73506e-17
0.0065175 0.0131712 -5.15962e-17
0.00646838 0.0132531 -4.8242e-17
0.00642041 0.0133333 -4.996e-17
0.00602282 0.014 -4.6213e-17
0.0056616 0.0146871 -4.80511e-17
0.00533106 0.0153894 -4.21942e-17
0.00502726 0.0161037 -4.84825e-17
0.00479033 0.0166667 -5.01368e-17
0.00451188 0.0173333 -5.46488e-17
0.00427293 0.0180152 -5.62827e-17
0.00406004 0.0187056 -5.68019e-17
0.003858 0.0193992 -6.06104e-17
0.00369268 0.02 -5.77139e-17
0.00362081 0.0202582 -5.83836e-17
0.00355462 0.0205179 -4.94661e-17
0.00349027 0.0207781 -5.23951e-17
0.00342738 0.0210386 -5.18565e-17
0.00333333 0.0214377 -4.42027e-17
0.00324722 0.0218168 -4.59401e-17
0.00316376 0.0221965 -5.02424e-17
0.00308284 0.0225768 -4.76016e-17
0.00300439 0.0229576 -4.07934e-17
0.00292941 0.0233333 -4.44089e-17
0.0027919 0.024 -4.69069e-17
0.00266989 0.0246697 -4.35119e-17
0.00255561 0.0253407 -4.73234e-17
0.00244844 0.0260129 -4.10683e-17
0.00234556 0.0266667 -4.30211e-17
0.00222948 0.0273333 -4.06619e-17
0.00213227 0.028003 -3.79482e-17
0.00205072 0.0286748 -3.44018e-17
0.00197487 0.0293472 -3.76363e-17
0.00188994 0.03 -3.88578e-17
0.00179049 0.0306667 -3.85803e-17
0.00171112 0.031336 -3.86541e-17
0.00165081 0.0320074 -3.90107e-17
0.00159259 0.0326789 -3.72955e-17
0.00152221 0.0333333 -4.43533e-17
0.00143618 0.034 -3.36057e-17
0.00137162 0.0346691 -3.07055e-17
0.00132683 0.0353398 -3.075e-17
0.00128296 0.0360105 -3.0875e-17
0.00122505 0.0366667 -3.53468e-17
0.00115021 0.0373333 -3.97325e-17
0.0010984 0.0380022 -3.55139e-17
0.00106057 0.038672 -3.59523e-17
0.00102274 0.0393418 -4.06794e-17
0.000975992 0.04 -4.18709e-17
0.000910721 0.0406667 -3.41295e-17
0.000870383 0.0413353 -3.70427e-17
0.000837708 0.0420044 -3.90732e-17
0.000805033 0.0426734 -3.20242e-17
0.000768591 0.0433333 -4.01378e-17
0.000711655 0.044 -3.44918e-17
0.000681913 0.0446684 -2.94434e-17
0.000653718 0.0453369 -2.76228e-17
0.000625523 0.0460054 -2.38788e-17
0.000597634 0.0466667 -2.87508e-17
0.000548024 0.0473333 -2.37416e-17
0.000523746 0.0480014 -2.36294e-17
0.000499467 0.0486695 -2.13765e-17
0.000475188 0.0493375 -2.31829e-17
0.000451113 0.05 -2.29557e-17
0.000407922 0.0506667 -1.86511e-17
0.000387031 0.0513344 -1.16062e-17
0.000366141 0.0520021 -1.51304e-17
0.00034525 0.0526699 -1.2079e-17
0.000324494 0.0533333 -1.71937e-17
0.000286814 0.054 -8.73492e-18
0.00026875 0.0546675 -1.48791e-17
0.000250686 0.055335 -1.27009e-17
0.000232621 0.0560025 -1.48533e-17
0.000214646 0.0566667 -1.28475e-17
0.000181457 0.0573333 -8.90641e-18
0.000165544 0.0580006 -9.15641e-18
0.000149632 0.0586679 -1.68636e-17
0.00013372 0.0593352 -1.20769e-17
0.000117868 0.06 -7.13518e-18
9.42946e-05 0.0605246 -1.14265e-17
8.27635e-05 0.0610495 -7.4106e-18
7.12323e-05 0.0615745 -8.59884e-18
5.97012e-05 0.0620994 5.87126e-18
3.25974e-05 0.0633333 5.49683e-18
2.60779e-05 0.0634863 1.38289e-17
2.27105e-05 0.0636394 1.33089e-17
1.93431e-05 0.0637925 1.32225e-17
1.59756e-05 0.0639456 1.48709e-17
0 0.0646719 1.74948e-17
0.05 0.00434783 5.94331e-18
0.0493333 0.00434873 5.24792e-18
0.0486667 0.0043527 3.84082e-19
0.048 0.00435906 -6.03691e-18
0.0473334 0.0043671 -7.76588e-19
0.0466667 0.00437804 -5.90313e-18
0.046 0.004393 -1.2173e-17
0.0453334 0.00440962 -7.3435e-18
0.0446668 0.00442789 -7.4238e-18
0.0440003 0.00444778 -1.00999e-17
0.0433333 0.00447158 -1.18467e-17
0.0426667 0.00450059 -5.06147e-18
0.042 0.00453005 -2.78353e-18
0.0413334 0.00456023 -2.91445e-18
0.0406669 0.00459204 -1.14336e-17
0.04 0.00462945 -1.63832e-17
0.0393333 0.00467336 -1.95788e-17
0.0386666 0.00471673 -2.41613e-17
0.0379999 0.00475956 -2.16159e-17
0.0373333 0.00480467 -2.01705e-17
0.0366667 0.00485736 -2.49425e-17
0.036 0.00491794 -2.72826e-17
0.0353332 0.00497725 -3.14747e-17
0.0346663 0.00503526 -3.21177e-17
0.0339998 0.00509698 -2.97984e-17
0.0333333 0.00516768 -3.19189e-17
0.0326667 0.00524782 -3.02536e-17
0.0319998 0.00532626 -3.3098e-17
0.0313327 0.00540297 -3.52139e-17
0.0306664 0.00548569 -3.06461e-17
0.03 0.00557856 -3.88578e-17
0.0293333 0.00568257 -3.9968e-17
0.0286664 0.00578483 -4.2188e-17
0.028 0.00589047 -4.48689e-17
0.0273348 0.00600342 -4.96646e-17
0.0266667 0.00612487 -4.996e-17
0.0261283 0.00623323 -3.79613e-17
0.02559 0.0063417 -3.91465e-17
0.0250528 0.00645561 -4.20683e-17
0.0245169 0.00657521 -4.81413e-17
0.0241275 0.00666667 -3.67109e-17
0.0239686 0.00670537 -4.06097e-17
0.02381 0.00674466 -4.52027e-17
0.0236514 0.00678452 -4.35509e-17
0.023493 0.00682497 -4.05115e-17
0.0233333 0.00686639 -4.05782e-17
0.0226667 0.00704418 -4.08743e-17
0.0220025 0.00723113 -3.841e-17
0.0213415 0.00742888 -3.65476e-17
0.020684 0.00763794 -3.31751e-17
0.02 0.00787216 -3.16831e-17
0.0193333 0.00812568 -3.13968e-17
0.0186708 0.00838972 -3.30917e-17
0.0180127 0.00866489 -3.23452e-17
0.0173621 0.00895715 -3.01822e-17
0.0166667 0.00929816 -2.91434e-17
0.0164058 0.00943853 -2.54144e-17
0.0161461 0.0095809 -2.27253e-17
0.0158876 0.00972553 -2.29887e-17
0.0156308 0.00987316 -2.3255e-17
0.0154161 0.01 -2.498e-17
0.0149995 0.0102517 -1.80244e-17
0.014589 0.0105133 -1.66629e-17
0.014185 0.0107847 -1.73778e-17
0.0137878 0.0110659 -1.91045e-17
0.0133333 0.0114077 -1.89976e-17
0.0128563 0.0117928 -9.12107e-18
0.0123896 0.0121904 -1.198e-17
0.0119337 0.0126003 -1.0506e-17
0.0114893 0.0130227 -6.36376e-18
0.0111805 0.0133333 -6.93538e-19
0.0109444 0.0135805 -1.80383e-18
0.0107137 0.0138327 -8.85989e-19
0.0104883 0.0140897 4.60968e-18
0.0102684 0.0143513 6.79949e-18
0.01 0.0146838 4.20061e-18
0.00969573 0.0150803 7.81996e-18
0.0094007 0.0154838 7.32863e-18
0.00911486 0.0158939 1.67396e-17
0.00883774 0.0163099 1.82419e-17
0.00860833 0.0166667 2.498e-17
0.00821999 0.0172885 3.0248e-17
0.00785925 0.0179268 2.69797e-17
0.00752487 0.0185793 2.66352e-17
0.00720898 0.0192409 3.14105e-17
0.00687102 0.02 3.65927e-17
0.00683015 0.0200983 2.8164e-17
0.00678989 0.0201968 2.93527e-17
0.00675014 0.0202956 2.60272e-17
0.00671079 0.0203945 3.00738e-17
0.00666667 0.0205067 2.76336e-17
0.00644731 0.021072 2.34946e-17
0.00623957 0.0216417 2.83438e-17
0.00604281 0.0222153 2.53289e-17
0.00585635 0.0227923 2.286e-17
0.00568758 0.0233333 1.80411e-17
0.00547823 0.024 1.76248e-17
0.00529135 0.0246733 2.17077e-17
0.00512584 0.0253522 2.20816e-17
0.00496821 0.026033 2.31779e-17
0.00481762 0.0266667 2.08815e-17
0.00465562 0.0273333 2.13442e-17
0.00451462 0.0280048 1.89961e-17
0.00439023 0.0286795 1.95464e-17
0.00427004 0.0293549 2.13023e-17
0.00415434 0.03 2.01433e-17
0.00402961 0.0306667 1.47999e-17
0.00392408 0.0313366 1.78955e-17
0.00382285 0.0320073 2.37189e-17
0.00372525 0.0326785 2.81523e-17
0.00363351 0.0333333 2.86435e-17
0.00357348 0.0337542 2.70157e-17
0.00351838 0.0341757 2.95442e-17
0.00346463 0.0345974 2.54787e-17
0.00341218 0.0350193 2.98268e-17
0.00333333 0.0356696 2.498e-17
0.00331007 0.035869 2.21657e-17
0.00328707 0.0360685 2.35152e-17
0.00326434 0.0362679 2.07018e-17
0.00324186 0.0364674 1.78888e-17
0.00321967 0.0366667 2.498e-17
0.00314483 0.0373333 2.8727e-17
0.00307416 0.0380005 3.24733e-17
0.00300639 0.0386679 3.55378e-17
[...]
POINT_DATA 41143
 FIELD attributes 1
U 3 41143 float
-6.45221e-19 	-1.70312e-21 	0
-0.0152383 	2.53248e-05 	0 -0.0152383 	2.53248e-05 	0 -0.0152383 	2.53248e-05 	0 -0.0152383 	2.53248e-05 	0 -0.0152383 	2.53248e-05 	0 -0.0152383 	2.53248e-05 	0 -0.0155719 	5.0491e-05 	0 -0.0158094 	8.87816e-05 	-3.92022e-25 -0.0157696 	0.000163591 	-1.87533e-24 -0.0155162 	0.000220606 	-3.36559e-24 -0.015192 	0.000271116 	-4.86172e-24 -0.0155167 	0.000264308 	1.90459e-22 -0.0156994 	0.000282055 	3.21049e-22 -0.015599 	0.000351008 	3.17212e-22 -0.0153652 	0.000425867 	1.89688e-22 -0.0150698 	0.0005044 	-6.01987e-24 -0.0153719 	0.000469549 	3.45249e-23 -0.015463 	0.000478538 	5.49706e-23 -0.0153131 	0.000541872 	5.07611e-23 -0.0151087 	0.000625022 	2.72388e-23 -0.0148533 	0.000729053 	-1.63609e-23 -0.0151218 	0.000671044 	-1.20039e-23 -0.0150918 	0.000686796 	-2.90583e-23 -0.0149063 	0.000745661 	-5.84159e-23 -0.0147224 	0.00082231 	-8.90358e-23 -0.014515 	0.000948628 	-1.23084e-22 -0.0147421 	0.000872974 	-9.29341e-23 -0.0145715 	0.000913121 	-8.78653e-23 -0.0143653 	0.000969397 	-8.62018e-23 -0.0141755 	0.00102745 	-8.48236e-23 -0.0140212 	0.00116614 	-1.11393e-22 -0.0141194 	0.00110859 	-1.94516e-22 -0.0138909 	0.00116246 	-1.56176e-22 -0.0136782 	0.00121845 	-1.17254e-22 -0.0134819 	0.00127664 	-7.77291e-23 -0.0133456 	0.00138464 	1.08608e-23 -0.0132986 	0.00137265 	-4.69428e-23 -0.0131132 	0.001418 	-3.34295e-23 -0.0129385 	0.0014651 	-1.92371e-23 -0.0127747 	0.00151401 	-4.34137e-24 -0.0126581 	0.00155288 	7.61813e-24 -0.0126213 	0.00156677 	1.19052e-23 -0.0125854 	0.00158079 	1.62453e-23 -0.0125503 	0.00159495 	2.06386e-23 -0.012516 	0.00160925 	2.50857e-23 -0.0124452 	0.00165487 	9.23862e-24 -0.0122063 	0.001683 	6.85277e-24 -0.0120026 	0.00174351 	7.77264e-24 -0.0118149 	0.00180732 	8.66161e-24 -0.0116441 	0.00187457 	9.51834e-24 -0.0112862 	0.0021395 	5.15944e-23 -0.010935 	0.00201808 	3.82012e-22 -0.0107461 	0.00207176 	4.68949e-22 -0.0105837 	0.00214168 	5.41483e-22 -0.0103199 	0.00234502 	4.40696e-22 -0.00998598 	0.0026824 	1.8181e-22 -0.00967815 	0.00258989 	4.48585e-22 -0.00936871 	0.00249669 	7.15342e-22 -0.00905531 	0.0025982 	7.2952e-22 -0.00878789 	0.00290887 	4.95036e-22 -0.00856761 	0.00324833 	2.61733e-22 -0.00834358 	0.00319854 	4.6619e-22 -0.00806131 	0.00325682 	5.01981e-22 -0.00776303 	0.00339087 	4.34846e-22 -0.00749845 	0.00354446 	3.64341e-22 -0.00734601 	0.0036608 	3.14922e-22 -0.00729823 	0.00370061 	3.00933e-22 -0.00725192 	0.00374139 	2.86798e-22 -0.0072071 	0.00378313 	2.72516e-22 -0.00714878 	0.00383683 	2.7089e-22 -0.00708265 	0.00389946 	2.75542e-22 -0.00667781 	0.00396584 	1.82907e-22 -0.0064106 	0.0041449 	9.87873e-23 -0.00617314 	0.00435522 	1.92625e-23 -0.00590347 	0.00463891 	2.61805e-23 -0.0056253 	0.00504172 	3.22609e-23 -0.00556356 	0.00508318 	1.86097e-23 -0.00550494 	0.00512755 	4.95199e-24 -0.00544855 	0.00517592 	3.0329e-23 -0.00539485 	0.00522787 	7.79134e-23 -0.00534957 	0.00527723 	1.20649e-22 -0.00504211 	0.00546838 	1.21508e-22 -0.00476766 	0.00569911 	1.16392e-22 -0.00453324 	0.00593785 	1.05254e-22 -0.00433718 	0.00617874 	8.85792e-23 -0.00406955 	0.00661697 	5.38334e-23 -0.00405273 	0.00664515 	8.91975e-23 -0.0040363 	0.00667385 	1.24257e-22 -0.00402025 	0.00670306 	1.59013e-22 -0.00402054 	0.00672462 	8.47981e-23 -0.00402266 	0.00674503 	4.02309e-25 -0.00363566 	0.00691508 	-6.81198e-22 -0.00342306 	0.00727342 	-1.12622e-21 -0.0032705 	0.00768971 	-1.50725e-21 -0.00336103 	0.00798633 	-1.19466e-21 -0.00343526 	0.00822451 	-9.47922e-22 -0.00300848 	0.00858475 	-6.231e-22 -0.00274328 	0.00889642 	-3.65771e-22 -0.00265015 	0.00909882 	-1.9867e-22 -0.00256671 	0.00932697 	-2.66315e-23 -0.00269637 	0.00968714 	1.79705e-23 -0.00253085 	0.00993041 	1.46404e-24 -0.00248249 	0.0100377 	0 -0.00244689 	0.0101359 	0 -0.00241282 	0.0102389 	0 -0.00236298 	0.0104036 	0 -0.00232006 	0.0105548 	0 -0.00227988 	0.010715 	0 -0.00224235 	0.010884 	0 -0.00220737 	0.0110614 	0 -0.00227074 	0.0110087 	0 -0.00202309 	0.0111042 	0 -0.00195009 	0.0114505 	0 -0.00188621 	0.0118312 	0 -0.00189643 	0.0120505 	0 -0.00205912 	0.011826 	0 -0.00173849 	0.0119767 	0 -0.0014896 	0.0122695 	0 -0.00144263 	0.0127904 	0 -0.00163462 	0.0125638 	0 -0.00182366 	0.0122251 	0 -0.00148303 	0.0125065 	0 -0.00116078 	0.0129215 	0 -0.00112874 	0.0130193 	0 -0.00136146 	0.012659 	0 -0.00157414 	0.0121985 	0 -0.00121826 	0.0126263 	0 -0.000883609 	0.0132302 	0 -0.00084086 	0.0128563 	0 -0.00109487 	0.0124063 	0 -0.00132711 	0.0118216 	0 -0.000961079 	0.0124077 	0 -0.000720414 	0.012755 	0 -0.000695603 	0.0123157 	0 -0.000836655 	0.0117796 	0 -0.00108425 	0.0110743 	0 -0.00071344 	0.0118261 	0 -0.000577477 	0.0118245 	0 -0.000555798 	0.0113806 	0 -0.000599848 	0.0108622 	0 -0.000858061 	0.0100472 	0 -0.000487982 	0.0109672 	0 -0.000447768 	0.0106165 	0 -0.000429254 	0.0101775 	0 -0.00041074 	0.00973855 	0 -0.000657949 	0.00884163 	0 -0.000349008 	0.00960346 	0 -0.000333546 	0.00917801 	0 -0.000318084 	0.00875255 	0 -0.000302622 	0.00832709 	0 -0.00048176 	0.00743616 	0 -0.000247814 	0.00792102 	0 -0.000235122 	0.00751536 	0 -0.000222431 	0.00710971 	0 -0.00020974 	0.00670406 	0 -0.000332298 	0.00587925 	2.90557e-37 -0.000164782 	0.00608887 	0 -0.000154403 	0.00570538 	0 -0.000144025 	0.00532189 	0 -0.000133647 	0.0049384 	0 -0.000210353 	0.00422529 	2.93131e-40 -9.93217e-05 	0.0041652 	0 -9.0612e-05 	0.00379994 	0 -8.19023e-05 	0.00343469 	0 -7.31926e-05 	0.00306944 	0 -0.000112239 	0.00249752 	-1.0538e-37 -5.09874e-05 	0.00232121 	0 -4.47522e-05 	0.00203735 	0 -3.8517e-05 	0.0017535 	0 -3.22819e-05 	0.00146964 	0 -3.14766e-05 	0.000738681 	0 -1.50753e-05 	0.000685392 	0 -1.31287e-05 	0.000596887 	0 -1.1182e-05 	0.000508382 	0 -9.23531e-06 	0.000419878 	0 0 	0 	0
-0.0296372 	4.00712e-05 	0 -0.0298587 	0.00017791 	0 -0.0299675 	0.000285918 	-6.94648e-25 -0.0299457 	0.000361017 	-2.15555e-24 -0.0297585 	0.000488501 	-1.77658e-23 -0.0294412 	0.000660493 	-4.53513e-23 -0.0295731 	0.000737483 	-2.24383e-22 -0.0296319 	0.000812059 	-3.3477e-22 -0.029574 	0.000882746 	-3.40613e-22 -0.0292942 	0.00104514 	-2.30588e-22 -0.0289133 	0.00125816 	-5.85193e-23 -0.028957 	0.00127983 	-6.8356e-23 -0.0289736 	0.00131139 	-7.7032e-23 -0.0288851 	0.00137871 	-8.14198e-23 -0.0284905 	0.00159829 	-5.54777e-23 -0.0280701 	0.00184885 	-2.40513e-23 -0.0280335 	0.00182371 	-4.8626e-23 -0.0279939 	0.00179821 	-7.32016e-23 -0.0278394 	0.00188411 	-9.63565e-23 -0.0273653 	0.00216264 	-9.22928e-23 -0.0269304 	0.00244716 	-8.78642e-23 -0.026826 	0.00238614 	-2.76326e-22 -0.0267149 	0.00232409 	-4.64882e-22 -0.0264101 	0.00244527 	-4.49262e-22 -0.0259426 	0.00275226 	-2.29753e-22 -0.0255173 	0.00306733 	-9.67667e-24 -0.0253603 	0.00298307 	1.52809e-22 -0.0251951 	0.00289723 	3.15227e-22 -0.0246775 	0.00306366 	3.28419e-22 -0.0242347 	0.00337741 	2.40763e-22 -0.0238406 	0.00371956 	1.40452e-22 -0.0236473 	0.00362564 	2.79299e-22 -0.023259 	0.003687 	3.15458e-22 -0.022752 	0.0038632 	2.78938e-22 -0.0222737 	0.00404906 	2.4121e-22 -0.0219276 	0.00441372 	9.30757e-23 -0.0217189 	0.00437629 	8.51549e-23 -0.0213197 	0.00452088 	1.16016e-22 -0.0209392 	0.00467286 	1.47395e-22 -0.0205784 	0.00483257 	1.79313e-22 -0.0203306 	0.00495479 	2.02971e-22 -0.0202341 	0.00500888 	2.04822e-22 -0.0201397 	0.00506378 	2.0661e-22 -0.0200472 	0.00511951 	2.08332e-22 -0.0199569 	0.00517606 	2.09989e-22 -0.0198019 	0.00528116 	2.18178e-22 -0.0192974 	0.00543165 	1.97861e-22 -0.0188754 	0.00564687 	2.0211e-22 -0.0184853 	0.00587738 	2.03968e-22 -0.0180514 	0.00618164 	2.23317e-22 -0.0174761 	0.00664593 	2.83166e-22 -0.0169865 	0.00676924 	1.6071e-22 -0.0165273 	0.00691104 	3.73995e-23 -0.0159683 	0.007173 	0 -0.0155161 	0.00760837 	4.02846e-23 -0.0150867 	0.00811901 	8.13835e-23 -0.0149423 	0.00819028 	3.48616e-23 -0.0147894 	0.00827514 	0 -0.0146012 	0.00839395 	0 -0.0144206 	0.00851816 	0 -0.0142751 	0.00862734 	0 -0.0139475 	0.00888619 	0 -0.0136435 	0.00916436 	0 -0.0133637 	0.00946215 	0 -0.0130227 	0.00979412 	0 -0.0126469 	0.0102106 	0 -0.0122953 	0.0104735 	0 -0.0119773 	0.010767 	0 -0.011645 	0.0110712 	0 -0.0113341 	0.0114013 	0 -0.0111381 	0.0116599 	0 -0.0109163 	0.01193 	0 -0.0107085 	0.0122145 	0 -0.0104979 	0.0124845 	-1.84496e-23 -0.0102875 	0.0127452 	-5.16011e-23 -0.0100413 	0.0130876 	-9.29589e-23 -0.00978897 	0.0133878 	-9.93131e-23 -0.00955914 	0.0137136 	-1.06779e-22 -0.00935658 	0.0140462 	-1.37802e-22 -0.00920136 	0.0143081 	-2.85949e-22 -0.00908308 	0.0145456 	-4.11914e-22 -0.00856363 	0.0151519 	-6.36631e-22 -0.00810455 	0.0158143 	-8.26545e-22 -0.00777735 	0.0162891 	-5.30264e-22 -0.0074853 	0.0168131 	-2.39059e-22 -0.00728316 	0.0175161 	1.45893e-22 -0.00721568 	0.0176646 	2.43447e-22 -0.00715934 	0.017784 	2.72597e-22 -0.00711273 	0.0178778 	2.41434e-22 -0.007067 	0.0179729 	2.10608e-22 -0.00701617 	0.0180821 	1.76071e-22 -0.00677394 	0.0185767 	1.60531e-22 -0.00655635 	0.0191127 	1.46449e-22 -0.00636195 	0.0196873 	1.33739e-22 -0.00628877 	0.0201593 	1.35781e-22 -0.00640121 	0.0203836 	1.61282e-22 -0.00583377 	0.0210186 	1.01269e-22 -0.0053005 	0.0217419 	4.23395e-23 -0.00520995 	0.022501 	1.69782e-22 -0.00543288 	0.0228624 	3.55581e-22 -0.00563336 	0.0231823 	5.27169e-22 -0.00505322 	0.0240624 	2.32854e-22 -0.00458995 	0.024897 	0 -0.00448577 	0.0252086 	0 -0.00458746 	0.0255772 	2.90345e-25 -0.00485573 	0.0259537 	8.17426e-25 -0.00426843 	0.0270977 	2.94808e-26 -0.00414784 	0.0274794 	0 -0.00405048 	0.0278555 	0 -0.00395831 	0.0282562 	0 -0.00408817 	0.0286585 	-1.21334e-22 -0.00382909 	0.0292974 	0 -0.00376693 	0.029552 	0 -0.00370679 	0.0298175 	0 -0.00364863 	0.0300935 	0 -0.00356198 	0.0305349 	0 -0.00353728 	0.0306757 	0 -0.00351297 	0.0308186 	0 -0.00348905 	0.0309636 	0 -0.00346551 	0.0311108 	0 -0.0034879 	0.0310693 	0 -0.00333945 	0.0315284 	0 -0.00324916 	0.0319973 	0 -0.00316333 	0.0324938 	0 -0.00308177 	0.0330168 	0 -0.00319875 	0.0326714 	0 -0.00289472 	0.0333476 	0 -0.00280779 	0.0338715 	0 -0.00272492 	0.0344239 	0 -0.00265548 	0.0349556 	0 -0.00289991 	0.0339555 	0 -0.00252983 	0.0348755 	0 -0.00238794 	0.0355271 	0 -0.00230757 	0.036125 	0 -0.00235234 	0.0360897 	0 -0.0025997 	0.0349353 	0 -0.0022357 	0.0360209 	0 -0.00199726 	0.0369477 	0 -0.00191996 	0.0375793 	0 -0.00206328 	0.0369583 	0 -0.00231004 	0.0356564 	0 -0.00195696 	0.0369004 	0 -0.0016474 	0.038164 	7.60876e-38 -0.00157534 	0.0388173 	6.47929e-37 -0.00180057 	0.0376186 	1.22138e-36 -0.00204482 	0.0361785 	1.78797e-36 -0.00170656 	0.0375699 	1.15729e-36 -0.00137568 	0.0390962 	5.32876e-37 -0.00132702 	0.0395642 	7.82568e-40 -0.00157568 	0.0380929 	1.66337e-39 -0.00181835 	0.0365244 	2.5339e-39 -0.00149739 	0.0380507 	1.57814e-39 -0.00118311 	0.0397145 	6.31442e-40 -0.00115181 	0.0399869 	-3.96644e-37 -0.00140366 	0.0384019 	-9.75986e-37 -0.00164986 	0.0367123 	-1.54904e-36 -0.00134699 	0.0383625 	-9.26219e-37 -0.00105023 	0.0401522 	-3.09014e-37 -0.00103842 	0.0402635 	0 -0.00130526 	0.0385689 	0 -0.00156628 	0.0367569 	0 -0.0012805 	0.0385276 	0 -0.00100065 	0.0404406 	0 -0.0010056 	0.040398 	0 -0.00130821 	0.038585 	0 -0.00160382 	0.0366309 	0 -0.00133321 	0.0385365 	0 -0.00106899 	0.0405908 	0 -0.00107688 	0.0403505 	0 -0.00144785 	0.0383841 	0 -0.00180856 	0.0362323 	0 -0.00155285 	0.0383242 	0 -0.00130511 	0.0405788 	0 -0.00128139 	0.0399702 	0 -0.00175777 	0.0377863 	0 -0.00222484 	0.0353132 	0 -0.00199149 	0.0377199 	0 -0.00180396 	0.039556 	0 -0.0017579 	0.0385459 	0 -0.00221895 	0.0362739 	0 -0.002837 	0.0332326 	0 -0.00265389 	0.0362422 	0 -0.00251004 	0.0370141 	0 -0.00239461 	0.0353119 	0 -0.0026277 	0.0328371 	0 -0.0034196 	0.0287821 	0 -0.00335849 	0.0330112 	0 -0.00309264 	0.030965 	0 -0.00279513 	0.0279862 	0 -0.00249763 	0.0250074 	0 -0.00318456 	0.0196037 	0 -0.00308625 	0.0222322 	0 -0.00242461 	0.017466 	0 -0.00176298 	0.0126999 	0 -0.00110134 	0.00793368 	0 -0.000166606 	0.000800485 	0 -0.000175664 	0.00101941 	0 -0.000139065 	0.000807013 	0 -0.000102465 	0.000594621 	0 -6.58656e-05 	0.000382228 	0 0 	0 	0
-0.0430769 	4.27279e-05 	0 -0.0430459 	0.000254905 	-2.01456e-23 -0.0429639 	0.000488174 	-4.60064e-23 -0.0429026 	0.000721952 	-7.20058e-23 -0.0428621 	0.000956235 	-9.81437e-23 -0.0427976 	0.00118099 	-1.24668e-22 -0.0426504 	0.00137682 	-1.53434e-22 -0.0424653 	0.00159575 	-1.5377e-22 -0.0423 	0.0018162 	-1.53318e-22 -0.0421547 	0.00203819 	-1.52067e-22 -0.0421039 	0.002129 	-1.51231e-22 -0.0420912 	0.00215587 	-1.51503e-22 -0.0420787 	0.00218276 	-1.51771e-22 -0.0420666 	0.00220967 	-1.52035e-22 -0.0420547 	0.00223662 	-1.52294e-22 -0.0420337 	0.00226818 	-1.53343e-22 -0.0417565 	0.00247588 	-1.25549e-22 -0.041495 	0.00268514 	-9.77316e-23 -0.041254 	0.00289707 	-6.9728e-23 -0.0410338 	0.0031117 	-4.15364e-23 -0.0407212 	0.00338808 	-1.86483e-23 -0.0404075 	0.00358458 	-3.53518e-24 -0.0400846 	0.00378828 	4.99028e-24 -0.0397823 	0.00399569 	1.37397e-23 -0.0395009 	0.0042069 	2.27176e-23 -0.0389773 	0.00456796 	1.69758e-23 -0.0386164 	0.00472481 	2.11257e-22 -0.0382555 	0.00492971 	2.54847e-22 -0.0379158 	0.00513952 	2.9973e-22 -0.0374981 	0.00541343 	2.74936e-22 -0.0368563 	0.00584394 	7.40068e-23 -0.0364371 	0.00597725 	4.75069e-23 -0.0360419 	0.00613413 	3.02889e-23 -0.0356894 	0.00635464 	4.23206e-23 -0.0350363 	0.00678691 	7.49245e-23 -0.0344085 	0.00724577 	1.07815e-22 -0.0339635 	0.00737722 	5.87225e-23 -0.0335364 	0.00751544 	9.42831e-24 -0.0328762 	0.00783166 	7.72396e-26 -0.0322626 	0.00829851 	1.67207e-23 -0.0316824 	0.0087939 	3.3209e-23 -0.031245 	0.00894293 	5.13152e-24 -0.0305973 	0.0092664 	0 -0.029935 	0.00964574 	0 -0.0293152 	0.010047 	0 -0.0287532 	0.0104614 	0 -0.0287465 	0.0104674 	0 -0.0287399 	0.0104735 	0 -0.0287332 	0.0104795 	0 -0.0287254 	0.0104862 	0 -0.0287151 	0.0104942 	0 -0.0280535 	0.0108915 	0 -0.0274381 	0.0113186 	0 -0.0268677 	0.0117738 	0 -0.0262449 	0.0123061 	0 -0.0254619 	0.0130017 	0 -0.0248236 	0.0133958 	0 -0.0242176 	0.0138325 	0 -0.023473 	0.0143807 	0 -0.0227955 	0.0149771 	0 -0.0220976 	0.0157205 	0 -0.0220969 	0.0157213 	0 -0.0220962 	0.015722 	0 -0.0220952 	0.0157228 	0 -0.0220942 	0.0157235 	0 -0.0220932 	0.0157243 	0 -0.0213292 	0.0163529 	0 -0.0206332 	0.017045 	0 -0.0199929 	0.0177963 	-3.23981e-26 -0.0192793 	0.0185651 	-3.81922e-25 -0.0184427 	0.0196639 	-8.42312e-25 -0.0183494 	0.0197883 	-8.44395e-25 -0.0182582 	0.0199147 	-8.46847e-25 -0.0181635 	0.0200335 	-7.04069e-24 -0.0180631 	0.020141 	-2.18003e-23 -0.0179697 	0.0202447 	-3.58011e-23 -0.0171901 	0.0210849 	-3.20552e-23 -0.0164899 	0.0220153 	-2.49016e-23 -0.0158349 	0.0228778 	-5.24576e-23 -0.0152607 	0.0237479 	-1.09968e-22 -0.014859 	0.0246435 	-1.88e-22 -0.014766 	0.0248381 	-2.51882e-22 -0.0146746 	0.0250289 	-3.01112e-22 -0.0145821 	0.0251768 	-2.39019e-22 -0.0144912 	0.0253266 	-1.77339e-22 -0.0143929 	0.0254937 	-1.09801e-22 -0.0139395 	0.0262164 	2.53521e-22 -0.0135289 	0.0269928 	6.04459e-22 -0.0131593 	0.0278197 	9.43388e-22 -0.0129173 	0.028414 	6.4861e-22 -0.0127488 	0.0288962 	2.28389e-22 -0.0121007 	0.0299706 	-1.29828e-22 -0.0115068 	0.0311289 	-4.92883e-22 -0.011131 	0.0318236 	-9.11218e-23 -0.010895 	0.0325928 	6.55495e-22 -0.0108009 	0.0333408 	1.6278e-21 -0.0104557 	0.0341861 	2.2726e-21 -0.01022 	0.0347546 	2.03645e-21 -0.0100223 	0.0352555 	1.55365e-21 -0.00983407 	0.0357742 	1.08094e-21 -0.00957431 	0.0365519 	4.09047e-22 -0.00948318 	0.0368554 	3.06527e-22 -0.00939461 	0.0371639 	2.04269e-22 -0.00930856 	0.0374774 	1.0227e-22 -0.00922833 	0.0377894 	2.85904e-24 -0.00929351 	0.0378433 	3.03032e-24 -0.00878094 	0.0387707 	-8.3971e-23 -0.00850911 	0.039759 	-2.9412e-22 -0.00825926 	0.0407944 	-5.08195e-22 -0.00816366 	0.0416017 	-7.25668e-22 -0.00840251 	0.0417553 	-9.37835e-22 -0.00772803 	0.042919 	-6.14138e-22 -0.00713109 	0.0441644 	-1.605e-22 -0.00695294 	0.0453163 	1.24497e-21 -0.00724768 	0.0454782 	2.36757e-21 -0.00752574 	0.0456059 	3.452e-21 -0.00684689 	0.0469979 	1.91976e-21 -0.00619496 	0.0484932 	4.08526e-22 -0.00603482 	0.0491205 	6.54265e-25 -0.00635862 	0.0492436 	3.63913e-24 -0.00666644 	0.0493275 	6.54312e-24 -0.00598825 	0.0509399 	2.70317e-24 -0.00548795 	0.0522545 	0 -0.00538019 	0.0526486 	0 -0.00551085 	0.0528593 	-2.99879e-21 -0.00583783 	0.052879 	-8.50749e-21 -0.00516588 	0.0546969 	-1.61233e-21 -0.00492835 	0.0554387 	0 -0.00482413 	0.0558577 	0 -0.00472257 	0.0562977 	0 -0.00505671 	0.0562344 	-1.07947e-23 -0.00448947 	0.0579496 	0 -0.00438747 	0.0583637 	0 -0.00428783 	0.058799 	0 -0.00419049 	0.0592551 	0 -0.00433625 	0.0593505 	2.53966e-21 -0.00397464 	0.0605778 	3.30269e-37 -0.00388011 	0.0610004 	9.66708e-37 -0.00378756 	0.0614435 	1.60203e-36 -0.00369695 	0.0619067 	2.23626e-36 -0.00369608 	0.0622149 	2.98472e-36 -0.00354298 	0.0628249 	3.2467e-36 -0.00348825 	0.0631014 	2.69744e-36 -0.00343421 	0.0633861 	2.15123e-36 -0.00338086 	0.0636789 	1.60803e-36 -0.00330971 	0.0640852 	8.783e-37 -0.00328667 	0.0642242 	6.94498e-37 -0.00326377 	0.0643646 	5.10773e-37 -0.00324099 	0.0645066 	3.27127e-37 -0.00321834 	0.06465 	1.43558e-37 -0.0032181 	0.0646408 	4.48448e-39 -0.00313357 	0.0651363 	-5.18525e-37 -0.00307064 	0.0655644 	-1.08689e-36 -0.00300889 	0.0660078 	-1.65604e-36 -0.00294829 	0.0664661 	-2.22597e-36 -0.00297798 	0.0662652 	-2.79599e-36 -0.00285811 	0.067073 	-2.17317e-36 -0.0028279 	0.0675078 	-1.55168e-36 -0.00279835 	0.0679518 	-9.30593e-37 -0.00276945 	0.0684049 	-3.09913e-37 -0.0028839 	0.0676783 	0 -0.00273804 	0.068832 	0 -0.00276134 	0.0692908 	0 -0.00278457 	0.0697486 	0 -0.00280773 	0.0702054 	0 -0.00301742 	0.0689172 	0 -0.00283891 	0.0704704 	0 -0.00294861 	0.0709873 	0 -0.00305693 	0.0714858 	0 -0.00316389 	0.0719664 	0 -0.00349355 	0.0699891 	0 -0.00324593 	0.072056 	0 -0.00349326 	0.0726898 	0 -0.00373639 	0.0732766 	0 -0.00400287 	0.0734372 	0 -0.00446136 	0.0708119 	0 -0.00422802 	0.0732186 	0 -0.00450615 	0.074466 	0 -0.00495759 	0.0752226 	0 -0.00546742 	0.074349 	0 -0.00606539 	0.0710498 	0 -0.00588227 	0.0740594 	0 -0.00604512 	0.0764469 	0 -0.00680509 	0.077519 	0 -0.00756987 	0.0744649 	0 -0.00830541 	0.069905 	0 -0.0082443 	0.0741341 	0 -0.00820377 	0.0785405 	0 -0.00907835 	0.078786 	0 -0.00990891 	0.0724295 	0 -0.0106443 	0.0655245 	0 -0.0108547 	0.0722757 	0 -0.0111184 	0.0793646 	0 -0.0105725 	0.0757149 	0 -0.0110412 	0.0654332 	0 -0.0113139 	0.0543594 	0 -0.0120382 	0.0665179 	0 -0.0115213 	0.0668596 	0 -0.0100136 	0.0581107 	0 -0.00850602 	0.0493617 	0 -0.00720997 	0.0312901 	0 -0.00791686 	0.0462888 	0 -0.00643087 	0.0376004 	0 -0.00494487 	0.028912 	0 -0.00345888 	0.0202235 	0 0 	0 	0