# vtk DataFile Version 2.0
track0
ASCII
DATASET POLYDATA
POINTS 41160 float
0.05 8.57988e-20 2.57396e-18
0.05 0.00217391 -1.05592e-17
0.05 0.00217391 -1.05592e-17
0.05 0.00217391 -1.05592e-17
0.05 0.00217391 -1.05592e-17
0.05 0.00217391 -1.05592e-17
0.05 0.00217391 -1.38778e-17
0.0493333 0.00217503 -8.74301e-18
0.0486667 0.0021772 -9.92262e-18
0.048 0.00218095 -7.50489e-18
0.0473334 0.00218787 -8.50077e-18
0.0466667 0.00219736 -6.93889e-18
0.046 0.00220926 2.77556e-19
0.0453333 0.00222062 -2.63676e-18
0.0446667 0.00223261 -2.3882e-18
0.0440001 0.00224761 -4.45682e-18
0.0433333 0.00226609 -1.38778e-17
0.0426667 0.00228841 -1.11022e-18
0.0419999 0.00230878 -9.02472e-19
0.0413332 0.00232941 1.96979e-18
0.0406666 0.002353 1.63258e-18
0.04 0.00238058 -6.93889e-18
0.0393333 0.0024133 -5.27356e-18
0.0386665 0.00244289 -9.22849e-18
0.0379997 0.00247324 -1.23962e-17
0.0373331 0.00250658 -9.78022e-18
0.0366667 0.0025438 -4.16334e-18
0.036 0.00258737 -1.08247e-17
0.0353331 0.00262686 -6.45063e-18
0.0346663 0.00266865 -1.64925e-18
0.0339997 0.00271362 -6.17746e-19
0.0333333 0.00276192 -6.93889e-18
0.0326667 0.00281737 -1.69309e-17
0.0319998 0.00286973 -1.54733e-17
0.0313331 0.00292551 -1.51124e-17
0.0306668 0.00298486 -1.43885e-17
0.03 0.003048 -1.11022e-17
0.0294499 0.00310506 -1.85128e-17
0.0288998 0.00316184 -2.38417e-17
0.02835 0.00322129 -2.66341e-17
0.0278005 0.00328351 -2.73381e-17
0.02738 0.00333333 -2.11163e-17
0.0272374 0.00335083 -1.24522e-17
0.0270947 0.00336854 -1.55841e-17
0.0269521 0.00338645 -1.87159e-17
0.0268095 0.00340457 -1.62966e-17
0.0266667 0.00342294 -2.19806e-17
0.026 0.00351158 -1.0657e-17
0.0253338 0.00360343 -2.0142e-17
0.0246682 0.0037001 -8.12109e-18
0.0240034 0.00380179 -1.08304e-17
0.0233333 0.00390965 -1.34498e-17
0.0226667 0.00403602 -2.05991e-17
0.0219994 0.00415916 -1.73347e-17
0.0213331 0.0042876 -1.47084e-17
0.0206681 0.00442216 -6.25524e-18
0.02 0.00457396 1.82843e-18
0.0193333 0.00475302 9.066e-19
0.0186665 0.00493145 -5.12634e-18
0.0179995 0.00510919 -5.36511e-18
0.0173359 0.00529955 -8.61923e-18
0.0166667 0.00552107 -6.93889e-18
0.0160623 0.00575019 -6.81699e-18
0.0154588 0.00598153 -4.75197e-18
0.0148595 0.00622363 -6.86906e-18
0.0142672 0.00648234 -1.15869e-17
0.0138773 0.00666667 -1.8947e-17
0.0137685 0.00672088 -1.46025e-17
0.0136601 0.00677585 -1.44219e-17
0.0135521 0.00683158 -1.56298e-17
0.0134444 0.00688808 -1.80309e-17
0.0133333 0.00694771 -1.98969e-17
0.0126667 0.00731473 -2.1202e-17
0.0120123 0.00770332 -2.32369e-17
0.0113733 0.00811652 -2.28295e-17
0.0107514 0.00855523 -2.39053e-17
0.01 0.00914572 -1.94289e-17
0.00980938 0.00931658 -2.17283e-17
0.00962041 0.00948925 -1.57051e-17
0.00943311 0.00966373 -1.25183e-17
0.00924753 0.00984005 -9.51246e-18
0.00908249 0.01 -6.93889e-18
0.00859932 0.0104767 -7.13586e-18
0.00813927 0.0109757 -8.29103e-18
0.00770381 0.0114964 -5.82715e-18
0.00729199 0.0120359 -4.77827e-18
0.00666667 0.0129269 -1.11022e-17
0.00661669 0.0130082 -1.3961e-17
0.00656702 0.0130897 -1.95948e-17
0.00651765 0.0131713 -1.41259e-17
0.00646859 0.0132532 -1.77113e-17
0.00642067 0.0133333 -1.94289e-17
0.00602317 0.014 -1.42941e-17
0.00566202 0.014687 -1.7173e-17
0.00533156 0.0153894 -1.6519e-17
0.00502784 0.0161036 -1.12062e-17
0.00479094 0.0166667 -2.77738e-18
0.00451254 0.0173333 -7.46269e-18
0.00427364 0.0180152 -2.86031e-18
0.00406079 0.0187056 -4.4131e-18
0.0038588 0.0193992 4.52054e-19
0.0036935 0.02 -8.23214e-19
0.00362147 0.0202588 -2.87902e-18
0.00355513 0.0205191 5.69931e-18
0.00349066 0.0207799 3.81237e-18
0.00342763 0.0210411 1.1985e-17
0.00333333 0.0214414 1.16187e-17
0.00324743 0.0218198 5.40805e-18
0.00316415 0.0221987 6.65715e-18
0.00308342 0.0225783 1.0686e-17
0.00300514 0.0229583 1.33312e-17
0.00293031 0.0233333 1.11022e-17
0.00279283 0.024 1.06859e-17
0.00267083 0.0246697 6.79511e-18
0.00255654 0.0253407 6.79765e-18
0.00244937 0.0260129 1.5833e-17
0.00234649 0.0266667 1.11022e-17
0.00223043 0.0273333 2.38698e-17
0.00213323 0.028003 2.41549e-17
0.00205165 0.0286748 2.83967e-17
0.00197578 0.0293472 2.41183e-17
0.00189084 0.03 2.22045e-17
0.00179139 0.0306667 2.38698e-17
0.00171201 0.031336 2.72654e-17
0.00165169 0.0320074 2.72572e-17
0.00159345 0.0326789 2.5156e-17
0.00152305 0.0333333 2.9364e-17
0.00143702 0.034 3.19584e-17
0.00137244 0.0346691 3.24302e-17
0.00132762 0.0353398 3.3682e-17
0.00128372 0.0360105 3.9903e-17
0.0012258 0.0366667 3.64695e-17
0.00115094 0.0373333 3.38186e-17
0.0010991 0.0380022 3.66494e-17
0.00106126 0.038672 3.23958e-17
0.00102341 0.0393418 3.42618e-17
0.000976632 0.04 3.44558e-17
0.000911332 0.0406667 3.73401e-17
0.000870959 0.0413353 3.78964e-17
0.000838265 0.0420044 3.65607e-17
0.000805572 0.0426734 4.41311e-17
0.000769095 0.0433333 3.96587e-17
0.000712122 0.044 4.04474e-17
0.000682341 0.0446684 3.64754e-17
0.000654123 0.0453369 3.6215e-17
0.000625904 0.0460054 4.6204e-17
0.000597993 0.0466667 4.48008e-17
0.000548337 0.0473333 4.05294e-17
0.000524031 0.0480014 3.74323e-17
0.000499724 0.0486695 3.8298e-17
0.000475418 0.0493375 3.78793e-17
0.000451315 0.05 3.67184e-17
0.000408072 0.0506667 4.10232e-17
0.000387149 0.0513344 4.39048e-17
0.000366227 0.0520021 4.62788e-17
0.000345305 0.0526699 4.89832e-17
0.000324517 0.0533333 5.08074e-17
0.000286777 0.054 5.05927e-17
0.000268677 0.0546675 5.451e-17
0.000250578 0.055335 5.84227e-17
0.000232478 0.0560025 5.24539e-17
0.000214468 0.0566667 4.68273e-17
0.000181212 0.0573333 4.7646e-17
0.000165261 0.0580006 4.7743e-17
0.000149309 0.0586679 4.62803e-17
0.000133358 0.0593352 4.48221e-17
0.000117468 0.06 4.97644e-17
9.39743e-05 0.0605215 4.82434e-17
8.24769e-05 0.0610434 4.39276e-17
7.09794e-05 0.0615653 4.68975e-17
5.94819e-05 0.0620873 5.34229e-17
3.20318e-05 0.0633333 5.12945e-17
2.56254e-05 0.0634833 4.69578e-17
2.23152e-05 0.0636333 4.83407e-17
1.90051e-05 0.0637833 4.20042e-17
1.56949e-05 0.0639334 4.33003e-17
0 0.0646447 5.07561e-17
0.05 0.00434783 5.94331e-18
0.0493333 0.00434874 8.02345e-18
0.0486667 0.00435273 1.07792e-18
0.048 0.0043591 -2.22051e-18
0.0473334 0.00436715 3.73378e-18
0.0466667 0.0043781 5.89289e-18
0.046 0.00439307 1.01074e-18
0.0453334 0.00440971 -1.79252e-18
0.0446668 0.00442798 -4.64825e-18
0.0440003 0.00444788 -3.50697e-18
0.0433333 0.00447169 -4.98319e-20
0.0426667 0.0045007 1.53125e-18
0.042 0.00453018 9.70729e-18
0.0413334 0.00456035 1.16572e-17
0.0406669 0.00459217 7.30276e-18
0.04 0.00462959 9.98437e-18
0.0393333 0.0046735 2.97234e-18
0.0386666 0.00471688 3.24705e-18
0.0379999 0.00475971 4.23173e-18
0.0373333 0.00480483 7.58535e-18
0.0366667 0.00485751 1.06178e-17
0.036 0.0049181 9.92568e-18
0.0353332 0.00497741 5.34317e-18
0.0346663 0.00503543 5.70037e-18
0.0339998 0.00509714 1.09687e-17
0.0333333 0.00516785 0
0.0326667 0.00524799 3.747e-18
0.0319998 0.00532643 3.33117e-18
0.0313327 0.00540314 2.86291e-18
0.0306664 0.00548587 1.61948e-18
0.03 0.00557873 6.93889e-18
0.0293333 0.00568275 3.05311e-18
0.0286664 0.005785 2.56784e-18
0.028 0.00589064 3.00975e-18
0.0273348 0.00600359 6.48649e-18
0.0266667 0.00612505 1.38778e-18
0.0261285 0.00623337 -3.26712e-18
0.0255904 0.0063418 -1.67705e-18
0.0250534 0.00645568 -5.72671e-18
0.0245176 0.00657524 -3.7312e-18
0.0241282 0.00666667 4.22735e-18
0.0239692 0.00670541 1.07371e-17
0.0238104 0.00674473 1.16955e-17
0.0236517 0.00678463 6.40868e-18
0.0234932 0.00682511 8.06048e-18
0.0233333 0.00686657 -3.32905e-19
0.0226667 0.00704437 6.30989e-18
0.0220025 0.00723132 7.38634e-18
0.0213415 0.00742908 -5.66953e-18
0.020684 0.00763814 -2.99062e-18
0.02 0.00787237 -8.78428e-18
0.0193333 0.0081259 -1.71228e-19
0.0186708 0.00838995 -8.25847e-19
0.0180127 0.00866512 -1.86788e-18
0.0173621 0.00895739 -2.42705e-18
0.0166667 0.00929843 6.93889e-18
0.016406 0.00943874 -1.82195e-18
0.0161463 0.00958106 2.25432e-18
0.015888 0.00972564 1.99071e-18
0.0156313 0.0098732 1.03039e-18
0.0154166 0.01 0
0.015 0.0102518 -2.94376e-18
0.0145894 0.0105134 1.37771e-18
0.0141853 0.0107849 -8.35762e-18
0.0137879 0.0110662 -3.83863e-18
0.0133333 0.0114082 -5.81454e-18
0.0128565 0.0117932 -6.34521e-18
0.01239 0.0121907 -1.26733e-17
0.0119342 0.0126004 -1.08539e-17
0.01149 0.0130227 -3.58694e-18
0.0111813 0.0133333 4.15582e-18
0.010945 0.0135807 -1.11624e-18
0.0107142 0.013833 1.2987e-17
0.0104887 0.0140903 1.1549e-17
0.0102686 0.0143521 1.37393e-17
0.01 0.0146849 1.77204e-17
0.00969597 0.0150812 1.33715e-17
0.00940117 0.0154845 1.56561e-17
0.00911555 0.0158943 1.3269e-17
0.00883864 0.0163101 1.33832e-17
0.00860936 0.0166667 1.80411e-17
0.00822082 0.0172889 2.33112e-17
0.0078599 0.0179276 1.81322e-17
0.00752537 0.0185805 2.26484e-17
0.00720934 0.0192426 2.65574e-17
0.00687221 0.02 2.13301e-17
0.0068311 0.0200989 1.56763e-17
0.00679061 0.020198 1.98124e-17
0.00675063 0.0202973 1.458e-17
0.00671106 0.0203968 2.17505e-17
0.00666667 0.0205097 1.79267e-17
0.00644763 0.0210745 1.65618e-17
0.00624018 0.0216435 2.00433e-17
0.00604367 0.0222165 2.39425e-17
0.00585743 0.0227929 3.39604e-17
0.00568884 0.0233333 3.60822e-17
0.00547949 0.024 3.56659e-17
0.00529261 0.0246733 4.21774e-17
0.0051271 0.0253522 4.11615e-17
0.00496947 0.0260329 4.05272e-17
0.00481886 0.0266667 3.99666e-17
0.00465685 0.0273333 4.77151e-17
0.00451583 0.0280048 4.57089e-17
0.00439144 0.0286795 4.62611e-17
0.00427124 0.0293549 4.03863e-17
0.00415551 0.03 3.81825e-17
0.00403076 0.0306667 4.81047e-17
0.00392519 0.0313366 4.56492e-17
0.00382394 0.0320073 5.28622e-17
0.00372633 0.0326785 5.31323e-17
0.00363457 0.0333333 5.22339e-17
0.00357432 0.0337555 6.17109e-17
0.00351905 0.0341783 5.38335e-17
0.00346512 0.0346014 5.18522e-17
0.00341251 0.0350245 5.2196e-17
0.00333333 0.0356776 5.41234e-17
0.00331026 0.0358754 4.85338e-17
0.00328744 0.0360732 4.15569e-17
0.00326489 0.0362711 4.01316e-17
0.00324258 0.036469 4.287e-17
0.00322056 0.0366667 4.30211e-17
0.0031457 0.0373333 3.56659e-17
0.00307501 0.0380005 3.21263e-17
0.0030072 0.0386679 3.83147e-17
0.00294216 0.0393356 3.82064e-17
0.00288011 0.04 3.88578e-17
0.00281481 0.0406667 3.28904e-17
0.00275685 0.041334 3.45546e-17
[...]
POINT_DATA 41160
 FIELD attributes 1
U 3 41160 float
-6.44229e-19 	-1.69521e-21 	0
-0.0152137 	2.55406e-05 	0 -0.0152137 	2.55406e-05 	0 -0.0152137 	2.55406e-05 	0 -0.0152137 	2.55406e-05 	0 -0.0152137 	2.55406e-05 	0 -0.0152137 	2.55406e-05 	0 -0.0155471 	5.06108e-05 	0 -0.0157843 	8.87928e-05 	-3.96148e-25 -0.0157445 	0.000163453 	-1.89491e-24 -0.0154913 	0.000220389 	-3.4007e-24 -0.0151673 	0.000270845 	-4.91241e-24 -0.0154918 	0.000264008 	1.92412e-22 -0.0156743 	0.000281696 	3.24324e-22 -0.015574 	0.00035051 	3.20434e-22 -0.0153404 	0.000425248 	1.91605e-22 -0.0150452 	0.000503669 	-6.12401e-24 -0.0153471 	0.00046885 	3.64428e-23 -0.0154381 	0.000477809 	5.82017e-23 -0.0152885 	0.000541018 	5.44454e-23 -0.0150842 	0.000624019 	3.04217e-23 -0.0148289 	0.000727883 	-1.468e-23 -0.0150973 	0.000669959 	-1.07707e-23 -0.0150674 	0.000685682 	-2.7655e-23 -0.0148822 	0.000744433 	-5.64809e-23 -0.0146984 	0.000820934 	-8.6449e-23 -0.014491 	0.000947039 	-1.19507e-22 -0.0147182 	0.00087151 	-9.02338e-23 -0.0145478 	0.000911593 	-8.56315e-23 -0.0143419 	0.000967764 	-8.43738e-23 -0.0141524 	0.00102571 	-8.33947e-23 -0.013998 	0.00116415 	-1.09549e-22 -0.0140963 	0.00110671 	-1.92396e-22 -0.0138682 	0.00116048 	-1.54549e-22 -0.0136559 	0.00121637 	-1.16124e-22 -0.0134598 	0.00127446 	-7.70967e-23 -0.0133236 	0.00138225 	1.08029e-23 -0.0132768 	0.00137029 	-4.67151e-23 -0.0130917 	0.00141556 	-3.32674e-23 -0.0129173 	0.00146257 	-1.9144e-23 -0.0127538 	0.00151139 	-4.3208e-24 -0.0126374 	0.0015502 	7.58094e-24 -0.0126007 	0.00156406 	1.18482e-23 -0.0125648 	0.00157806 	1.61681e-23 -0.0125297 	0.0015922 	2.05411e-23 -0.0124954 	0.00160648 	2.49676e-23 -0.0124248 	0.00165202 	9.19524e-24 -0.0121863 	0.00168009 	6.82343e-24 -0.0119829 	0.0017405 	7.74232e-24 -0.0117955 	0.0018042 	8.63043e-24 -0.011625 	0.00187133 	9.48642e-24 -0.0112675 	0.00213577 	5.14185e-23 -0.0109171 	0.00201458 	3.80717e-22 -0.0107285 	0.00206818 	4.67333e-22 -0.0105663 	0.00213798 	5.39617e-22 -0.0103029 	0.00234093 	4.3921e-22 -0.0099693 	0.00267769 	1.81219e-22 -0.00966214 	0.00258536 	4.4721e-22 -0.00935338 	0.00249236 	7.13183e-22 -0.00904055 	0.0025937 	7.27333e-22 -0.00877334 	0.0029038 	4.93561e-22 -0.00855319 	0.00324263 	2.60967e-22 -0.00832958 	0.00319295 	4.64927e-22 -0.00804771 	0.00325118 	5.00624e-22 -0.00774979 	0.00338504 	4.33671e-22 -0.00748552 	0.00353841 	3.63355e-22 -0.00733328 	0.00365458 	3.14074e-22 -0.00728562 	0.00369429 	3.00141e-22 -0.00723943 	0.00373495 	2.86061e-22 -0.00719472 	0.00377659 	2.71836e-22 -0.00713653 	0.00383014 	2.70219e-22 -0.00707055 	0.00389258 	2.74854e-22 -0.00666649 	0.003959 	1.82473e-22 -0.00639963 	0.00413778 	9.85743e-23 -0.00616251 	0.00434777 	1.92273e-23 -0.00589314 	0.00463095 	2.61279e-23 -0.00561523 	0.00503308 	3.21928e-23 -0.00555356 	0.00507452 	1.8571e-23 -0.00549501 	0.00511888 	4.94264e-24 -0.00543868 	0.0051672 	3.02528e-23 -0.00538503 	0.0052191 	7.7725e-23 -0.0053398 	0.0052684 	1.20356e-22 -0.00503285 	0.00545931 	1.21204e-22 -0.00475885 	0.00568973 	1.1609e-22 -0.00452482 	0.0059281 	1.04969e-22 -0.00432911 	0.00616859 	8.83258e-23 -0.00406187 	0.00660614 	5.36469e-23 -0.0040451 	0.00663427 	8.88772e-23 -0.00402871 	0.0066629 	1.23804e-22 -0.00401271 	0.00669205 	1.58429e-22 -0.00401298 	0.00671356 	8.45055e-23 -0.0040151 	0.00673391 	4.00395e-25 -0.00362902 	0.00690389 	-6.79085e-22 -0.00341684 	0.00726161 	-1.12279e-21 -0.00326446 	0.00767723 	-1.50306e-21 -0.00335481 	0.0079732 	-1.1913e-21 -0.00342889 	0.00821089 	-9.45178e-22 -0.00300298 	0.00857046 	-6.21346e-22 -0.00273812 	0.00888174 	-3.64616e-22 -0.0026452 	0.00908372 	-1.97916e-22 -0.00256195 	0.00931138 	-2.62945e-23 -0.00269178 	0.00967109 	1.77675e-23 -0.00252621 	0.00991441 	1.44692e-24 -0.00247785 	0.0100217 	0 -0.00244227 	0.01012 	0 -0.00240821 	0.010223 	0 -0.00235836 	0.0103879 	0 -0.00231564 	0.0105386 	0 -0.00227565 	0.0106982 	0 -0.00223829 	0.0108666 	0 -0.00220346 	0.0110432 	0 -0.00226656 	0.0109908 	0 -0.00201981 	0.0110865 	0 -0.00194699 	0.0114321 	0 -0.00188327 	0.0118118 	0 -0.00189322 	0.0120314 	0 -0.00205561 	0.0118073 	0 -0.00173566 	0.0119577 	0 -0.00148769 	0.0122502 	0 -0.00144084 	0.0127699 	0 -0.00163215 	0.0125447 	0 -0.00182087 	0.0122066 	0 -0.00148091 	0.0124874 	0 -0.0011593 	0.0129013 	0 -0.00112742 	0.0130003 	0 -0.00135974 	0.0126408 	0 -0.00157207 	0.0121812 	0 -0.00121686 	0.012608 	0 -0.000882828 	0.0132105 	0 -0.000840146 	0.0128384 	0 -0.00109379 	0.0123894 	0 -0.0013257 	0.0118059 	0 -0.000960284 	0.0123906 	0 -0.000719714 	0.0127383 	0 -0.000694934 	0.0122997 	0 -0.000836128 	0.0117646 	0 -0.0010834 	0.0110608 	0 -0.000713149 	0.0118109 	0 -0.0005771 	0.0118102 	0 -0.000555437 	0.0113668 	0 -0.000599692 	0.010849 	0 -0.000857647 	0.0100357 	0 -0.000488025 	0.0109538 	0 -0.000447619 	0.0106042 	0 -0.000429107 	0.0101657 	0 -0.000410596 	0.00972713 	0 -0.000657825 	0.00883187 	0 -0.00034902 	0.00959287 	0 -0.000333548 	0.00916764 	0 -0.000318077 	0.00874241 	0 -0.000302606 	0.00831718 	0 -0.000481798 	0.00742765 	0 -0.000247896 	0.00791165 	0 -0.000235186 	0.00750601 	0 -0.000222476 	0.00710037 	0 -0.000209766 	0.00669473 	0 -0.000332359 	0.00587104 	2.90169e-37 -0.000164852 	0.00607951 	0 -0.000154447 	0.00569581 	0 -0.000144043 	0.00531211 	0 -0.000133638 	0.00492841 	0 -0.000210318 	0.00421617 	2.92775e-40 -9.93062e-05 	0.00415436 	0 -9.05647e-05 	0.00378867 	0 -8.18232e-05 	0.00342298 	0 -7.30817e-05 	0.00305729 	0 -0.000111996 	0.00248611 	-1.04874e-37 -5.09057e-05 	0.00231081 	0 -4.46776e-05 	0.00202809 	0 -3.84494e-05 	0.00174537 	0 -3.22213e-05 	0.00146265 	0 -3.0984e-05 	0.000725127 	0 -1.48462e-05 	0.000672889 	0 -1.29285e-05 	0.000585968 	0 -1.10107e-05 	0.000499047 	0 -9.09292e-06 	0.000412127 	0 0 	0 	0
-0.0295887 	4.07339e-05 	0 -0.0298098 	0.000178208 	0 -0.0299184 	0.000285956 	-7.01813e-25 -0.0298965 	0.000360906 	-2.1779e-24 -0.0297095 	0.000488193 	-1.79506e-23 -0.0293924 	0.000659934 	-4.58201e-23 -0.0295242 	0.000736681 	-2.2669e-22 -0.0295829 	0.000811055 	-3.38239e-22 -0.029525 	0.000881603 	-3.44156e-22 -0.0292455 	0.00104375 	-2.33131e-22 -0.028865 	0.00125644 	-5.95268e-23 -0.0289087 	0.00127798 	-7.0941e-23 -0.0289253 	0.0013094 	-8.07747e-23 -0.028837 	0.00137659 	-8.4777e-23 -0.0284428 	0.00159584 	-5.68313e-23 -0.0280228 	0.00184598 	-2.31222e-23 -0.0279864 	0.00182082 	-4.40652e-23 -0.027947 	0.00179531 	-6.50083e-23 -0.0277927 	0.00188107 	-8.77641e-23 -0.0273191 	0.00215912 	-8.67092e-23 -0.0268847 	0.00244316 	-8.53003e-23 -0.0267807 	0.00238221 	-2.71171e-22 -0.0266699 	0.00232023 	-4.57134e-22 -0.0263655 	0.0024412 	-4.4188e-22 -0.0258985 	0.00274764 	-2.25708e-22 -0.0254737 	0.00306216 	-8.97619e-24 -0.0253172 	0.00297804 	1.52184e-22 -0.0251525 	0.00289234 	3.13277e-22 -0.0246356 	0.00305852 	3.26384e-22 -0.0241933 	0.00337165 	2.39344e-22 -0.0237996 	0.0037132 	1.39697e-22 -0.0236069 	0.00361945 	2.77903e-22 -0.0232192 	0.00368075 	3.13874e-22 -0.0227131 	0.00385664 	2.77551e-22 -0.0222356 	0.00404216 	2.40025e-22 -0.0218898 	0.0044061 	9.26355e-23 -0.0216817 	0.00436877 	8.47654e-23 -0.0212832 	0.00451305 	1.15533e-22 -0.0209035 	0.00466471 	1.46815e-22 -0.0205434 	0.00482407 	1.78633e-22 -0.020296 	0.00494604 	2.0222e-22 -0.0201996 	0.00500008 	2.04076e-22 -0.0201052 	0.00505493 	2.05868e-22 -0.0200128 	0.00511061 	2.07596e-22 -0.0199225 	0.00516712 	2.09258e-22 -0.0197676 	0.00527211 	2.17427e-22 -0.0192639 	0.0054223 	1.97161e-22 -0.0188426 	0.00563715 	2.01407e-22 -0.0184531 	0.00586726 	2.03269e-22 -0.0180198 	0.006171 	2.22578e-22 -0.0174454 	0.00663444 	2.82235e-22 -0.0169566 	0.00675758 	1.60169e-22 -0.0164983 	0.00689918 	3.72505e-23 -0.0159401 	0.00716072 	0 -0.0154885 	0.00759524 	4.01403e-23 -0.0150596 	0.00810496 	8.11202e-23 -0.0149156 	0.0081761 	3.47507e-23 -0.0147629 	0.0082608 	0 -0.0145752 	0.00837937 	0 -0.014395 	0.00850331 	0 -0.0142497 	0.00861226 	0 -0.0139225 	0.00887072 	0 -0.0136188 	0.00914847 	0 -0.0133394 	0.00944582 	0 -0.0129989 	0.00977728 	0 -0.0126236 	0.0101931 	0 -0.0122727 	0.0104556 	0 -0.0119554 	0.0107485 	0 -0.0116237 	0.0110521 	0 -0.0113134 	0.0113815 	0 -0.0111178 	0.0116396 	0 -0.0108962 	0.0119094 	0 -0.0106886 	0.0121936 	0 -0.0104782 	0.0124633 	-1.83291e-23 -0.0102681 	0.0127237 	-5.12578e-23 -0.0100221 	0.0130657 	-9.23448e-23 -0.00977048 	0.0133653 	-9.86533e-23 -0.00954123 	0.0136904 	-1.06064e-22 -0.00933917 	0.0140222 	-1.36887e-22 -0.00918437 	0.0142835 	-2.84386e-22 -0.00906636 	0.0145204 	-4.09816e-22 -0.00854757 	0.0151258 	-6.33619e-22 -0.0080891 	0.0157873 	-8.22715e-22 -0.00776243 	0.0162614 	-5.2809e-22 -0.00747086 	0.0167848 	-2.38509e-22 -0.0072704 	0.0174854 	1.43455e-22 -0.00720266 	0.0176343 	2.40937e-22 -0.00714611 	0.0177542 	2.7013e-22 -0.00709934 	0.0178483 	2.39111e-22 -0.00705346 	0.0179438 	2.0843e-22 -0.00700243 	0.0180535 	1.74035e-22 -0.00676112 	0.0185467 	1.58932e-22 -0.00654431 	0.0190811 	1.45273e-22 -0.00635059 	0.019654 	1.32972e-22 -0.00627759 	0.0201245 	1.352e-22 -0.00638973 	0.0203481 	1.60547e-22 -0.00582347 	0.0209817 	1.0084e-22 -0.00529131 	0.0217034 	4.22106e-23 -0.00520125 	0.0224621 	1.70578e-22 -0.00542381 	0.0228227 	3.56755e-22 -0.00562396 	0.0231419 	5.28696e-22 -0.005045 	0.0240201 	2.33771e-22 -0.00458206 	0.0248539 	0 -0.00447815 	0.0251649 	0 -0.00458058 	0.0255329 	2.9109e-25 -0.00484844 	0.0259086 	8.17316e-25 -0.0042623 	0.0270501 	3.05751e-26 -0.00414133 	0.0274322 	0 -0.00404424 	0.0278076 	0 -0.00395232 	0.0282074 	0 -0.00408285 	0.028609 	-1.21779e-22 -0.0038234 	0.0292487 	0 -0.00376123 	0.0295036 	0 -0.00370109 	0.0297695 	0 -0.00364294 	0.030046 	0 -0.00355622 	0.0304885 	0 -0.0035318 	0.0306279 	0 -0.00350776 	0.0307695 	0 -0.00348411 	0.0309132 	0 -0.00346083 	0.0310589 	0 -0.00348302 	0.0310178 	0 -0.00333533 	0.0314759 	0 -0.00324532 	0.031944 	0 -0.00315974 	0.0324397 	0 -0.00307843 	0.0329617 	0 -0.00319498 	0.0326185 	0 -0.00289177 	0.0332929 	0 -0.00280511 	0.0338161 	0 -0.0027225 	0.0343676 	0 -0.00265304 	0.0348999 	0 -0.00289723 	0.0339018 	0 -0.00252761 	0.0348198 	0 -0.00238627 	0.0354702 	0 -0.00230617 	0.0360673 	0 -0.00235086 	0.0360334 	0 -0.00259806 	0.0348812 	0 -0.0022344 	0.0359647 	0 -0.00199641 	0.0368896 	0 -0.00191939 	0.0375207 	0 -0.00206266 	0.0369017 	0 -0.00230934 	0.035602 	0 -0.00195647 	0.0368438 	0 -0.00164716 	0.0381053 	7.60262e-38 -0.00157539 	0.0387583 	6.47028e-37 -0.00180069 	0.0375618 	1.21963e-36 -0.00204498 	0.0361239 	1.78538e-36 -0.00170677 	0.037513 	1.15553e-36 -0.00137597 	0.039037 	5.31953e-37 -0.00132759 	0.0395048 	7.81952e-40 -0.00157641 	0.0380357 	1.66236e-39 -0.00181923 	0.0364694 	2.53247e-39 -0.00149819 	0.0379934 	1.57699e-39 -0.00118384 	0.0396552 	6.30583e-40 -0.00115274 	0.039927 	-3.95648e-37 -0.00140487 	0.0383441 	-9.74136e-37 -0.00165133 	0.0366565 	-1.54633e-36 -0.00134822 	0.0383047 	-9.24318e-37 -0.00105125 	0.0400926 	-3.07932e-37 -0.00103953 	0.040203 	0 -0.00130676 	0.0385102 	0 -0.00156815 	0.0366999 	0 -0.00128197 	0.038469 	0 -0.00100176 	0.0403807 	0 -0.00100665 	0.0403365 	0 -0.00130975 	0.0385251 	0 -0.00160581 	0.0365723 	0 -0.00133465 	0.0384766 	0 -0.00106991 	0.0405301 	0 -0.00107746 	0.0402874 	0 -0.00144899 	0.0383223 	0 -0.00181019 	0.0361714 	0 -0.00155377 	0.0382626 	0 -0.00130537 	0.0405171 	0 -0.00128207 	0.0399007 	0 -0.00175772 	0.0377212 	0 -0.00222529 	0.0352486 	0 -0.00199106 	0.0376552 	0 -0.0018033 	0.0394817 	0 -0.00175711 	0.0384704 	0 -0.00221638 	0.0362032 	0 -0.00283489 	0.0331623 	0 -0.00265071 	0.0361725 	0 -0.00250641 	0.0369299 	0 -0.0023908 	0.0352266 	0 -0.00262062 	0.0327579 	0 -0.003413 	0.0287041 	0 -0.00335065 	0.0329344 	0 -0.00308372 	0.0308655 	0 -0.00278602 	0.0278857 	0 -0.00248832 	0.024906 	0 -0.00317081 	0.0195123 	0 -0.00307227 	0.0221306 	0 -0.00241383 	0.0173876 	0 -0.00175539 	0.0126447 	0 -0.00109694 	0.00790167 	0 -0.000144232 	0.000692932 	0 -0.000152056 	0.000882477 	0 -0.00012038 	0.000698642 	0 -8.87041e-05 	0.000514807 	0 -5.70284e-05 	0.000330972 	0 0 	0 	0
-0.0430052 	4.41017e-05 	0 -0.0429741 	0.000255837 	-2.03533e-23 -0.0428921 	0.000488641 	-4.64805e-23 -0.0428307 	0.000721956 	-7.27477e-23 -0.0427901 	0.000955776 	-9.91548e-23 -0.0427256 	0.00118012 	-1.25952e-22 -0.0425784 	0.00137555 	-1.55166e-22 -0.0423935 	0.00159405 	-1.55721e-22 -0.0422283 	0.00181407 	-1.55479e-22 -0.0420831 	0.00203562 	-1.54432e-22 -0.042033 	0.00212506 	-1.53686e-22 -0.0420201 	0.00215212 	-1.53988e-22 -0.0420076 	0.00217919 	-1.54286e-22 -0.0419953 	0.00220629 	-1.54579e-22 -0.0419834 	0.00223342 	-1.54867e-22 -0.0419622 	0.0022652 	-1.5596e-22 -0.0416854 	0.0024725 	-1.27847e-22 -0.0414242 	0.00268135 	-9.97152e-23 -0.0411835 	0.00289286 	-7.13938e-23 -0.0409636 	0.00310708 	-4.28801e-23 -0.0406513 	0.003383 	-1.96835e-23 -0.040338 	0.00357908 	-6.14842e-24 -0.0400156 	0.00378239 	2.32356e-24 -0.0397137 	0.0039894 	1.09985e-23 -0.0394327 	0.0042002 	1.98807e-23 -0.0389098 	0.00456069 	1.77503e-23 -0.0385494 	0.00471715 	2.07954e-22 -0.038189 	0.00492167 	2.51001e-22 -0.0378499 	0.00513109 	2.9532e-22 -0.0374327 	0.00540458 	2.71145e-22 -0.0367919 	0.00583432 	7.42045e-23 -0.0363733 	0.00596735 	4.74918e-23 -0.0359788 	0.00612387 	3.00754e-23 -0.0356268 	0.00634398 	4.2056e-23 -0.0349746 	0.00677557 	7.44926e-23 -0.0343477 	0.0072336 	1.07203e-22 -0.0339036 	0.0073648 	5.83775e-23 -0.0334772 	0.00750276 	9.35121e-24 -0.0328178 	0.00781842 	6.25378e-26 -0.0322052 	0.00828444 	1.66258e-23 -0.0316259 	0.00877893 	3.30347e-23 -0.0311893 	0.00892771 	5.09122e-24 -0.0305425 	0.00925072 	0 -0.0298814 	0.00962937 	0 -0.0292626 	0.0100299 	0 -0.0287029 	0.0104425 	0 -0.028696 	0.0104488 	0 -0.0286891 	0.010455 	0 -0.0286822 	0.0104613 	0 -0.028674 	0.0104683 	0 -0.0286634 	0.0104765 	0 -0.0280027 	0.010873 	0 -0.0273884 	0.0112994 	0 -0.0268189 	0.0117538 	0 -0.026197 	0.0122852 	0 -0.0254153 	0.0129796 	0 -0.024778 	0.013373 	0 -0.024173 	0.0138091 	0 -0.0234297 	0.0143564 	0 -0.0227534 	0.0149518 	0 -0.0220564 	0.0156937 	0 -0.0220559 	0.0156942 	0 -0.0220553 	0.0156947 	0 -0.0220547 	0.0156953 	0 -0.022054 	0.0156958 	0 -0.0220533 	0.0156964 	0 -0.0212901 	0.016324 	0 -0.020595 	0.0170151 	0 -0.0199555 	0.0177654 	-1.49947e-26 -0.0192429 	0.0185331 	-1.76691e-25 -0.0184074 	0.0196305 	-3.89706e-25 -0.0183146 	0.0197544 	-3.90669e-25 -0.0182238 	0.0198802 	-3.91803e-25 -0.0181295 	0.0199985 	-6.51651e-24 -0.0180296 	0.0201054 	-2.11227e-23 -0.0179366 	0.0202086 	-3.498e-23 -0.017158 	0.0210477 	-3.06318e-23 -0.0164587 	0.0219767 	-2.28675e-23 -0.0158046 	0.0228381 	-5.14358e-23 -0.0152322 	0.0237074 	-1.11269e-22 -0.0148324 	0.024599 	-1.91054e-22 -0.0147391 	0.0247942 	-2.55541e-22 -0.0146474 	0.0249856 	-3.05251e-22 -0.0145546 	0.0251339 	-2.42673e-22 -0.0144635 	0.0252842 	-1.80514e-22 -0.0143649 	0.025452 	-1.12421e-22 -0.0139131 	0.0261727 	2.48566e-22 -0.0135039 	0.0269467 	5.97301e-22 -0.0131355 	0.0277711 	9.34153e-22 -0.0128943 	0.0283637 	6.42948e-22 -0.0127264 	0.0288445 	2.26916e-22 -0.0120795 	0.0299165 	-1.27068e-22 -0.0114868 	0.0310723 	-4.85836e-22 -0.0111116 	0.0317664 	-8.58934e-23 -0.0108769 	0.0325342 	6.61427e-22 -0.0107831 	0.0332807 	1.63122e-21 -0.0104379 	0.034126 	2.27709e-21 -0.0102022 	0.0346947 	2.04031e-21 -0.0100045 	0.0351957 	1.55616e-21 -0.00981639 	0.0357145 	1.08216e-21 -0.00955662 	0.036493 	4.0801e-22 -0.00946618 	0.0367946 	3.05756e-22 -0.00937827 	0.0371011 	2.03763e-22 -0.00929284 	0.0374125 	1.02026e-22 -0.00921318 	0.0377226 	2.85669e-24 -0.00927798 	0.0377761 	3.02691e-24 -0.00876746 	0.0387015 	-8.45237e-23 -0.0084963 	0.0396878 	-2.94684e-22 -0.00824708 	0.040721 	-5.08769e-22 -0.0081511 	0.0415281 	-7.26253e-22 -0.00838969 	0.0416816 	-9.38442e-22 -0.0077165 	0.0428428 	-6.14687e-22 -0.00712155 	0.0440853 	-1.58976e-22 -0.00694327 	0.0452366 	1.24542e-21 -0.00723776 	0.0453985 	2.36645e-21 -0.00751557 	0.0455262 	3.44936e-21 -0.00683794 	0.0469154 	1.91907e-21 -0.0061872 	0.0484078 	4.09753e-22 -0.00602751 	0.0490351 	6.57105e-25 -0.00635112 	0.0491585 	3.63491e-24 -0.00665876 	0.0492427 	6.53199e-24 -0.0059817 	0.0508521 	2.70059e-24 -0.00548179 	0.0521656 	0 -0.00537433 	0.0525592 	0 -0.00550554 	0.0527697 	-2.99998e-21 -0.00583243 	0.05279 	-8.50032e-21 -0.00516151 	0.0546049 	-1.61446e-21 -0.0049241 	0.0553466 	0 -0.00482017 	0.0557652 	0 -0.00471888 	0.0562047 	0 -0.00505334 	0.0561422 	-1.07813e-23 -0.00448671 	0.0578555 	0 -0.004385 	0.0582694 	0 -0.00428563 	0.0587044 	0 -0.00418857 	0.0591602 	0 -0.00433461 	0.0592563 	2.53604e-21 -0.0039735 	0.0604823 	3.2985e-37 -0.00387924 	0.0609049 	9.65444e-37 -0.00378696 	0.0613479 	1.59992e-36 -0.00369662 	0.0618109 	2.23331e-36 -0.00369586 	0.0621198 	2.98052e-36 -0.0035434 	0.0627277 	3.24214e-36 -0.00348903 	0.0630034 	2.69539e-36 -0.00343535 	0.0632871 	2.15165e-36 -0.00338235 	0.0635788 	1.61088e-36 -0.00331176 	0.0639831 	8.85325e-37 -0.00328857 	0.0641233 	7.00025e-37 -0.00326552 	0.064265 	5.14803e-37 -0.00324259 	0.0644083 	3.29661e-37 -0.0032198 	0.0645531 	1.44597e-37 -0.00321967 	0.0645436 	4.48197e-39 -0.0031351 	0.0650403 	-5.1722e-37 -0.0030724 	0.0654688 	-1.08472e-36 -0.00301087 	0.0659125 	-1.65302e-36 -0.0029505 	0.0663712 	-2.22209e-36 -0.0029808 	0.0661683 	-2.79125e-36 -0.00286058 	0.0669776 	-2.16925e-36 -0.00283056 	0.067413 	-1.54857e-36 -0.0028012 	0.0678577 	-9.283e-37 -0.00277249 	0.0683115 	-3.08435e-37 -0.00288771 	0.0675818 	0 -0.00274107 	0.0687377 	0 -0.00276451 	0.0691975 	0 -0.00278787 	0.0696562 	0 -0.00281117 	0.070114 	0 -0.0030218 	0.0688213 	0 -0.00284191 	0.0703776 	0 -0.00295166 	0.0708957 	0 -0.00306004 	0.0713955 	0 -0.00316705 	0.0718774 	0 -0.00349782 	0.0698937 	0 -0.00324793 	0.0719648 	0 -0.0034952 	0.0726002 	0 -0.00373827 	0.0731887 	0 -0.00400543 	0.0733411 	0 -0.00446438 	0.0707159 	0 -0.00423015 	0.0731226 	0 -0.00450529 	0.0743775 	0 -0.0049565 	0.0751363 	0 -0.00546697 	0.0742508 	0 -0.00606529 	0.0709512 	0 -0.00588111 	0.0739614 	0 -0.00603907 	0.0763591 	0 -0.00679868 	0.0774342 	0 -0.00756381 	0.0743617 	0 -0.00829956 	0.0698011 	0 -0.00823722 	0.0740315 	0 -0.00819556 	0.0784399 	0 -0.00906281 	0.0786712 	0 -0.00989373 	0.0723149 	0 -0.0106292 	0.0654094 	0 -0.0108384 	0.0721623 	0 -0.011101 	0.0792543 	0 -0.0105452 	0.0755827 	0 -0.0110147 	0.0653029 	0 -0.0112879 	0.0542303 	0 -0.0120111 	0.0663908 	0 -0.0114857 	0.0666586 	0 -0.00997818 	0.0579098 	0 -0.00847071 	0.0491609 	0 -0.00717398 	0.0311356 	0 -0.00787696 	0.0460604 	0 -0.00639853 	0.0374153 	0 -0.0049201 	0.0287702 	0 -0.00344167 	0.0201251 	0 0 	0 	0