# vtk DataFile Version 2.0
track0
ASCII
DATASET POLYDATA
POINTS 40344 float
0.05 8.57988e-20 2.57396e-18
0.05 0.00217391 -1.05592e-17
0.05 0.00217391 -1.05592e-17
0.05 0.00217391 -1.05592e-17
0.05 0.00217391 -1.05592e-17
0.05 0.00217391 -1.05592e-17
0.05 0.00217391 -1.38778e-17
0.0493333 0.00217524 -6.66134e-18
0.0486667 0.00217756 -3.33067e-18
0.048 0.00218143 -3.86118e-18
0.0473334 0.00218844 -7.11394e-18
0.0466667 0.00219804 -1.38778e-17
0.046 0.00221007 -1.08247e-17
0.0453333 0.00222153 -8.53482e-18
0.0446667 0.00223358 -1.22745e-17
0.0440001 0.00224863 -1.20828e-17
0.0433333 0.00226717 -1.94289e-17
0.0426667 0.00228956 -1.22125e-17
0.0419999 0.00230997 -1.33925e-17
0.0413332 0.00233064 -1.71203e-17
0.0406666 0.00235424 -1.98801e-17
0.04 0.00238182 -2.498e-17
0.0393333 0.00241457 -2.1233e-17
0.0386665 0.00244416 -2.51879e-17
0.0379997 0.0024745 -2.28025e-17
0.0373331 0.00250782 -1.67315e-17
0.0366667 0.00254501 -1.11022e-17
0.036 0.00258856 -1.91513e-17
0.0353331 0.00262801 -1.30426e-17
0.0346663 0.00266975 -7.88324e-18
0.0339997 0.00271468 -1.16228e-17
0.0333333 0.00276291 -1.38778e-17
0.0326667 0.00281829 -1.69309e-17
0.0319998 0.00287059 -1.54733e-17
0.0313331 0.00292629 -1.71928e-17
0.0306668 0.00298556 -1.47343e-17
0.03 0.0030486 -1.11022e-17
0.0294503 0.00310555 -8.79901e-18
0.0289006 0.0031622 -1.06591e-17
0.0283511 0.00322151 -1.27581e-17
0.027802 0.00328359 -2.456e-17
0.0273815 0.00333333 -2.11127e-17
0.0272385 0.00335084 -1.66126e-17
0.0270956 0.00336855 -2.52964e-17
0.0269527 0.00338647 -1.73267e-17
0.0268098 0.0034046 -2.04592e-17
0.0266667 0.00342297 -1.36539e-17
0.026 0.00351147 -1.89839e-17
0.0253338 0.00360317 -7.65262e-18
0.0246682 0.00369968 -1.08966e-17
0.0240034 0.0038012 -1.49937e-17
0.0233333 0.00390889 -6.50961e-18
0.0226667 0.00403504 -7.41358e-18
0.0219994 0.00415794 -8.31214e-18
0.0213331 0.00428616 -9.15725e-18
0.0206681 0.00442051 -1.74083e-18
0.02 0.00457201 3.58257e-18
0.0193333 0.00475077 2.49033e-18
0.0186665 0.00492887 -1.71793e-18
0.0179995 0.00510627 -3.03051e-18
0.0173359 0.00529627 -1.68853e-18
0.0166667 0.0055174 6.93889e-18
0.0160595 0.00574725 1.40066e-17
0.0154533 0.00597934 1.25814e-17
0.0148513 0.00622232 1.81349e-17
0.0142563 0.00648211 1.3421e-17
0.013866 0.00666667 8.82732e-18
0.0137595 0.0067198 1.45559e-17
0.0136533 0.00677365 1.19571e-17
0.0135475 0.00682824 1.07455e-17
0.0134421 0.00688356 5.90465e-18
0.0133333 0.00694189 3.70499e-18
0.0126667 0.00730849 -7.31385e-18
0.0120124 0.00769678 -1.02159e-18
0.0113735 0.0081098 -3.47003e-18
0.0107518 0.00854842 3.31283e-18
0.01 0.0091395 6.93889e-18
0.00980824 0.0093116 3.25457e-18
0.00961817 0.00948556 9.53814e-19
0.00942981 0.00966137 1.35122e-18
0.00924321 0.00983906 9.21177e-18
0.00907758 0.01 6.93889e-18
0.0085954 0.0104771 2.57951e-18
0.00813644 0.0109765 5.48984e-19
0.00770218 0.0114976 -2.35297e-18
0.00729162 0.0120376 -9.64592e-19
0.00666667 0.0129316 -5.55112e-18
0.00661748 0.0130119 -8.19173e-20
0.00656859 0.0130924 -7.10223e-18
0.00651999 0.0131732 -7.18316e-18
0.00647169 0.0132541 -5.22641e-18
0.0064245 0.0133333 -5.55112e-18
0.00602868 0.014 -3.19189e-18
0.00566902 0.0146869 -4.33574e-18
0.0053399 0.0153889 -1.92648e-18
0.00503759 0.0161028 -4.32965e-18
0.00480126 0.0166667 -5.18022e-18
0.00452387 0.0173333 -5.00576e-18
0.00428576 0.018015 -5.41146e-18
0.00407386 0.0187053 -5.10439e-18
0.00387269 0.0193988 -2.31922e-18
0.00370784 0.02 -2.35432e-18
0.00363294 0.0202694 -4.38146e-18
0.00356417 0.0205404 -6.42337e-18
0.00349738 0.0208119 -1.2105e-17
0.00343214 0.0210838 -8.07413e-18
0.00333333 0.021506 -7.06817e-18
0.00325103 0.0218715 -5.68817e-18
0.00317115 0.0222375 -1.13723e-17
0.00309359 0.022604 -3.1748e-18
0.00301829 0.0229709 -1.91242e-18
0.00294616 0.0233333 -5.55112e-18
0.00280921 0.024 -1.29063e-17
0.0026873 0.0246696 -1.85317e-17
0.00257301 0.0253405 -2.37746e-17
0.00246574 0.0260126 -2.36778e-17
0.00236303 0.0266667 -2.35922e-17
0.00224725 0.0273333 -2.1233e-17
0.00215015 0.028003 -2.44175e-17
0.00206817 0.0286746 -2.18828e-17
0.00199184 0.029347 -2.41338e-17
0.00190686 0.03 -2.498e-17
0.00180747 0.0306667 -2.95597e-17
0.00172796 0.031336 -3.06743e-17
0.00166734 0.0320073 -3.274e-17
0.00160882 0.0326788 -3.24114e-17
0.00153819 0.0333333 -4.06965e-17
0.001452 0.034 -4.26109e-17
0.00138708 0.0346691 -4.05745e-17
0.00134179 0.0353398 -4.10773e-17
0.00129745 0.0360105 -3.70959e-17
0.00123913 0.0366667 -3.12069e-17
0.00116393 0.0373333 -3.17756e-17
0.0011116 0.0380022 -2.98113e-17
0.00107353 0.038672 -2.76257e-17
0.00103547 0.0393418 -2.95559e-17
0.000988161 0.04 -2.31562e-17
0.000922351 0.0406667 -1.81894e-17
0.000881349 0.0413353 -1.55504e-17
0.000848334 0.0420044 -1.82566e-17
0.000815319 0.0426735 -2.00373e-17
0.000778229 0.0433333 -2.6276e-17
0.00072059 0.044 -1.64656e-17
0.000690108 0.0446685 -1.41914e-17
0.000661478 0.045337 -1.68676e-17
0.000632847 0.0460055 -1.83279e-17
0.000604534 0.0466667 -3.01501e-17
0.000554068 0.0473333 -2.99099e-17
0.000529267 0.0480014 -3.26591e-17
0.000504467 0.0486696 -3.45605e-17
0.000479667 0.0493377 -3.70609e-17
0.000455081 0.05 -3.54523e-17
0.000410892 0.0506667 -3.82584e-17
0.000389402 0.0513345 -3.1039e-17
0.000367912 0.0520022 -2.4845e-17
0.000346421 0.05267 -2.80387e-17
0.000325075 0.0533333 -2.41336e-17
0.000286264 0.054 -2.19179e-17
0.000267528 0.0546675 -2.18159e-17
0.000248791 0.0553351 -2.5538e-17
0.000230055 0.0560026 -2.94252e-17
0.000211416 0.0566667 -3.50465e-17
0.000176971 0.0573333 -3.70015e-17
0.000160319 0.0580007 -3.55154e-17
0.000143666 0.058668 -3.24763e-17
0.000127014 0.0593354 -2.73426e-17
0.000110429 0.06 -3.21028e-17
8.83432e-05 0.0604699 -3.68346e-17
7.7446e-05 0.0609402 -3.88088e-17
6.65488e-05 0.0614105 -3.93952e-17
5.56516e-05 0.0618808 -4.61533e-17
2.1995e-05 0.0633333 -5.27722e-17
1.7596e-05 0.0634314 -5.50301e-17
1.53093e-05 0.0635296 -5.36485e-17
1.30227e-05 0.0636278 -5.40016e-17
1.07361e-05 0.063726 -5.48751e-17
0 0.064187 -6.03346e-17
0.05 0.00434783 5.94331e-18
0.0493333 0.00434904 5.2474e-18
0.0486667 0.00435326 -3.10746e-19
0.048 0.00435984 -1.3885e-19
0.0473334 0.00436808 7.55172e-18
0.0466667 0.00437924 9.36045e-18
0.046 0.00439442 2.39627e-18
0.0453334 0.00441123 5.83773e-18
0.0446668 0.00442964 -1.37978e-19
0.0440002 0.00444967 3.27273e-19
0.0433333 0.00447361 1.35077e-18
0.0426667 0.00450278 3.62677e-18
0.042 0.00453237 5.21163e-18
0.0413334 0.00456263 7.14695e-18
0.0406669 0.00459452 8.0202e-18
0.04 0.00463203 9.9803e-18
0.0393333 0.00467605 1.12948e-17
0.0386666 0.0047195 1.08755e-17
0.0379999 0.00476237 1.04812e-17
0.0373333 0.00480754 8.97766e-18
0.0366667 0.00486028 1.26718e-17
0.036 0.00492092 -7.71846e-20
0.0353332 0.00498027 -3.33736e-18
0.0346663 0.00503831 -6.85719e-18
0.0339998 0.00510004 -9.30823e-18
0.0333333 0.00517077 -2.77556e-18
0.0326667 0.00525093 -3.19189e-18
0.0319998 0.00532938 2.08675e-19
0.0313327 0.00540609 -1.39452e-18
0.0306664 0.00548883 -8.14064e-19
0.03 0.00558169 0
0.0293333 0.0056857 -5.96745e-18
0.0286664 0.00578794 -8.88133e-18
0.028 0.00589359 -6.0059e-18
0.0273348 0.00600655 -1.01077e-17
0.0266667 0.00612799 -1.11022e-17
0.0261313 0.00623573 -8.82296e-18
0.025596 0.00634357 -1.41765e-17
0.0250619 0.00645678 -1.95319e-17
0.0245289 0.00657563 -1.89773e-17
0.0241408 0.00666667 -2.35491e-17
0.0239793 0.00670597 -2.11985e-17
0.0238179 0.00674588 -1.88482e-17
0.0236568 0.00678638 -1.99675e-17
0.0234957 0.00682748 -1.69238e-17
0.0233333 0.00686959 -1.83791e-17
0.0226667 0.00704743 -2.28386e-17
0.0220025 0.00723441 -2.45377e-17
0.0213415 0.0074322 -2.89148e-17
0.020684 0.00764132 -2.86592e-17
0.02 0.00787564 -3.30622e-17
0.0193333 0.00812928 -2.96531e-17
0.0186708 0.00839346 -3.1357e-17
0.0180128 0.00866879 -3.19808e-17
0.0173622 0.00896128 -3.43524e-17
0.0166667 0.00930265 -3.60822e-17
0.0164078 0.00944212 -4.06767e-17
0.01615 0.00958357 -4.90996e-17
0.0158934 0.00972726 -4.58968e-17
0.0156385 0.00987391 -4.61662e-17
0.0154252 0.01 -4.85723e-17
0.0150069 0.010253 -3.65036e-17
0.0145946 0.0105159 -4.16522e-17
0.0141889 0.0107888 -5.20787e-17
0.0137901 0.0110716 -4.82422e-17
0.0133333 0.0114159 -5.02362e-17
0.0128595 0.0117993 -5.07491e-17
0.0123959 0.0121952 -5.70723e-17
0.011943 0.0126032 -5.84e-17
0.0115017 0.0130237 -5.76894e-17
0.0111944 0.0133333 -5.32207e-17
0.0109555 0.0135838 -5.74258e-17
0.0107221 0.0138394 -5.37061e-17
0.0104943 0.0141 -5.78331e-17
0.010272 0.0143653 -5.91027e-17
0.01 0.0147036 -5.39368e-17
0.00970011 0.0150962 -6.01739e-17
0.00940925 0.0154955 -6.34338e-17
0.00912738 0.0159013 -5.89152e-17
0.00885404 0.0163128 -6.29703e-17
0.00862705 0.0166667 -5.55112e-17
0.00823497 0.0172958 -5.81855e-17
0.00787103 0.0179417 -6.37542e-17
0.00753395 0.018602 -6.59423e-17
0.00721564 0.0192715 -6.63515e-17
0.00689283 0.02 -6.74362e-17
0.00684759 0.0201088 -7.58759e-17
0.00680311 0.0202179 -7.61055e-17
0.00675924 0.0203272 -6.3794e-17
0.00671585 0.0204368 -6.59679e-17
0.00666667 0.0205626 -6.10447e-17
0.00645317 0.0211167 -5.13338e-17
0.00625069 0.021675 -5.06528e-17
0.00605861 0.0222369 -4.54215e-17
0.00587632 0.0228021 -4.51744e-17
0.0057108 0.0233333 -4.996e-17
0.00550168 0.024 -4.89886e-17
0.00531488 0.0246733 -5.01098e-17
0.00514932 0.0253521 -5.26373e-17
0.00499157 0.0260327 -5.24176e-17
0.00484076 0.0266667 -4.81027e-17
0.00467856 0.0273333 -5.0763e-17
0.00453723 0.0280047 -5.70224e-17
0.00441283 0.0286795 -5.3312e-17
0.00429256 0.029355 -5.15185e-17
0.00417638 0.03 -4.99762e-17
0.00405112 0.0306667 -4.97676e-17
0.00394496 0.0313366 -5.9161e-17
0.00384346 0.0320073 -5.08743e-17
0.00374554 0.0326786 -5.16452e-17
0.00365346 0.0333333 -5.60443e-17
0.00358944 0.0337786 -5.58899e-17
0.00353095 0.0342247 -5.15802e-17
0.00347393 0.034671 -4.65788e-17
0.00341836 0.0351174 -5.18036e-17
0.00333333 0.0358185 -5.41234e-17
0.00331358 0.0359881 -5.41563e-17
0.00329401 0.0361578 -5.28011e-17
0.00327463 0.0363274 -5.00578e-17
0.00325544 0.0364972 -5.42531e-17
0.00323644 0.0366667 -4.996e-17
0.00316124 0.0373333 -4.48253e-17
0.00309002 0.0380004 -4.35076e-17
[...]
POINT_DATA 40344
 FIELD attributes 1
U 3 40344 float
-6.26734e-19 	-1.55465e-21 	0
-0.0147799 	2.93309e-05 	0 -0.0147799 	2.93309e-05 	0 -0.0147799 	2.93309e-05 	0 -0.0147799 	2.93309e-05 	0 -0.0147799 	2.93309e-05 	0 -0.0147799 	2.93309e-05 	0 -0.0151094 	5.27201e-05 	0 -0.0153433 	8.8994e-05 	-4.6684e-25 -0.0153031 	0.000161023 	-2.22978e-24 -0.0150525 	0.000216557 	-4.00094e-24 -0.014732 	0.000266048 	-5.77908e-24 -0.015053 	0.000258704 	2.25685e-22 -0.0152332 	0.000275354 	3.80035e-22 -0.0151346 	0.000341735 	3.75237e-22 -0.0149036 	0.000414318 	2.24244e-22 -0.0146108 	0.00049075 	-7.90609e-24 -0.01491 	0.0004565 	6.91762e-23 -0.0150007 	0.000464949 	1.13291e-22 -0.0148546 	0.000525947 	1.17261e-22 -0.014653 	0.000606309 	8.4739e-23 -0.0143986 	0.00070723 	1.39892e-23 -0.0146657 	0.000650799 	1.02659e-23 -0.0146379 	0.000666013 	-3.68725e-24 -0.0144577 	0.000722761 	-2.34457e-23 -0.0142773 	0.000796659 	-4.23168e-23 -0.0140692 	0.000918978 	-5.84867e-23 -0.0142963 	0.000845675 	-4.41668e-23 -0.0141308 	0.000884614 	-4.75059e-23 -0.0139307 	0.00093893 	-5.31697e-23 -0.0137464 	0.000994964 	-5.89956e-23 -0.0135902 	0.00112896 	-7.80988e-23 -0.0136904 	0.0010735 	-1.56226e-22 -0.0134689 	0.00112556 	-1.26802e-22 -0.0132627 	0.00117966 	-9.68352e-23 -0.0130722 	0.00123588 	-6.63052e-23 -0.0129365 	0.00134015 	9.81186e-24 -0.0128935 	0.0013287 	-4.2846e-23 -0.0127139 	0.00137252 	-3.0514e-23 -0.0125446 	0.00141804 	-1.75641e-23 -0.0123858 	0.0014653 	-3.97436e-24 -0.0122727 	0.00150289 	6.94368e-24 -0.0122369 	0.00151634 	1.08672e-23 -0.0122019 	0.00152992 	1.48391e-23 -0.0121677 	0.00154364 	1.88598e-23 -0.0121343 	0.0015575 	2.29297e-23 -0.0120651 	0.00160161 	8.45077e-24 -0.0118341 	0.00162888 	6.32325e-24 -0.0116366 	0.00168743 	7.22634e-24 -0.0114545 	0.00174917 	8.10063e-24 -0.0112887 	0.00181422 	8.94486e-24 -0.0109389 	0.00206984 	4.84232e-23 -0.0106022 	0.00195284 	3.58738e-22 -0.0104195 	0.00200519 	4.39819e-22 -0.0102618 	0.00207287 	5.07843e-22 -0.0100042 	0.00226881 	4.1396e-22 -0.00967622 	0.00259452 	1.71183e-22 -0.0093809 	0.00250555 	4.23965e-22 -0.00908398 	0.00241591 	6.76731e-22 -0.00878133 	0.00251438 	6.90436e-22 -0.00851788 	0.00281442 	4.68682e-22 -0.00829991 	0.00314227 	2.48075e-22 -0.00808373 	0.0030945 	4.43879e-22 -0.00780864 	0.00315177 	4.78037e-22 -0.00751692 	0.00328241 	4.14129e-22 -0.00725807 	0.00343217 	3.46964e-22 -0.00710941 	0.00354526 	3.00022e-22 -0.00706394 	0.00358306 	2.87049e-22 -0.00701984 	0.00362175 	2.73942e-22 -0.00697711 	0.00366134 	2.60701e-22 -0.00692139 	0.00371214 	2.59227e-22 -0.00685819 	0.00377126 	2.63574e-22 -0.00646788 	0.00383853 	1.75417e-22 -0.00620733 	0.00401251 	9.51829e-23 -0.00597605 	0.00421647 	1.86942e-23 -0.00571191 	0.00449083 	2.5316e-23 -0.00543849 	0.00488097 	3.11303e-23 -0.00537802 	0.00492212 	1.7967e-23 -0.00532063 	0.00496616 	4.79741e-24 -0.00526528 	0.00501383 	2.88623e-23 -0.00521249 	0.00506488 	7.42665e-23 -0.00516806 	0.0051133 	1.14972e-22 -0.00487019 	0.0052999 	1.15608e-22 -0.00460423 	0.00552484 	1.10561e-22 -0.00437722 	0.00575666 	9.97877e-23 -0.00418738 	0.00599003 	8.37617e-23 -0.00392725 	0.00641557 	5.03889e-23 -0.00391118 	0.00644276 	8.32939e-23 -0.00389547 	0.00647043 	1.15916e-22 -0.00388013 	0.00649859 	1.48258e-22 -0.00388027 	0.0065192 	7.93908e-23 -0.00388227 	0.00653864 	3.66516e-25 -0.003512 	0.00670712 	-6.40744e-22 -0.00330715 	0.00705403 	-1.06011e-21 -0.00315796 	0.00745789 	-1.42508e-21 -0.00324522 	0.00774266 	-1.12886e-21 -0.0033168 	0.00797166 	-8.94568e-22 -0.00290612 	0.00831969 	-5.89119e-22 -0.00264736 	0.00862394 	-3.43846e-22 -0.0025581 	0.00881858 	-1.84545e-22 -0.00247806 	0.00903777 	-2.0602e-23 -0.00261064 	0.00938912 	1.37323e-23 -0.00244436 	0.00963298 	1.10823e-24 -0.00239622 	0.00974059 	0 -0.00236086 	0.00983945 	0 -0.00232707 	0.00994323 	0 -0.00227704 	0.0101116 	0 -0.00223788 	0.010253 	0 -0.00220113 	0.0104023 	0 -0.0021667 	0.0105593 	0 -0.00213451 	0.0107237 	0 -0.00219293 	0.0106749 	0 -0.00196182 	0.0107754 	0 -0.00189212 	0.0111074 	0 -0.00183106 	0.0114719 	0 -0.00183634 	0.0116948 	0 -0.0019935 	0.0114779 	0 -0.00168541 	0.0116232 	0 -0.00145353 	0.0119102 	0 -0.00140879 	0.0124087 	0 -0.00158841 	0.0122063 	0 -0.00177126 	0.0118802 	0 -0.00144335 	0.01215 	0 -0.00113297 	0.0125472 	0 -0.00110383 	0.0126649 	0 -0.00132921 	0.0123183 	0 -0.00153535 	0.0118756 	0 -0.00119189 	0.0122851 	0 -0.000868741 	0.0128628 	0 -0.000827701 	0.0125224 	0 -0.00107456 	0.0120901 	0 -0.00130036 	0.0115282 	0 -0.000945945 	0.0120893 	0 -0.000707156 	0.0124438 	0 -0.000682941 	0.0120176 	0 -0.000826575 	0.0114998 	0 -0.00106825 	0.0108217 	0 -0.000707777 	0.0115423 	0 -0.00057028 	0.0115574 	0 -0.000548917 	0.0111245 	0 -0.000596805 	0.0106172 	0 -0.000850156 	0.009833 	0 -0.000488669 	0.0107165 	0 -0.000444873 	0.0103881 	0 -0.000426417 	0.00995711 	0 -0.00040796 	0.00952614 	0 -0.000655568 	0.00866007 	0 -0.000349175 	0.00940669 	0 -0.000333546 	0.00898564 	0 -0.000317917 	0.0085646 	0 -0.000302287 	0.00814355 	0 -0.000482466 	0.00727881 	0 -0.000249347 	0.00774814 	0 -0.000236306 	0.0073429 	0 -0.000223265 	0.00693766 	0 -0.000210223 	0.00653242 	0 -0.000333485 	0.0057284 	2.83514e-37 -0.000166085 	0.00591725 	0 -0.000155214 	0.00552996 	0 -0.000144344 	0.00514267 	0 -0.000133474 	0.00475538 	0 -0.000209683 	0.00405834 	2.8654e-40 -9.89885e-05 	0.00396694 	0 -8.96739e-05 	0.00359366 	0 -8.03593e-05 	0.00322038 	0 -7.10448e-05 	0.0028471 	0 -0.000107554 	0.00228836 	-9.6161e-38 -4.93656e-05 	0.0021305 	0 -4.32763e-05 	0.0018677 	0 -3.7187e-05 	0.0016049 	0 -3.10978e-05 	0.0013421 	0 -2.19239e-05 	0.000488966 	0 -1.05881e-05 	0.00045463 	0 -9.21219e-06 	0.00039555 	0 -7.83625e-06 	0.00033647 	0 -6.4603e-06 	0.000277391 	0 0 	0 	0
-0.0287328 	5.23295e-05 	0 -0.0289479 	0.000183391 	0 -0.0290531 	0.000286571 	-8.23968e-25 -0.0290308 	0.000358898 	-2.5594e-24 -0.0288457 	0.000482674 	-2.11096e-23 -0.0285331 	0.000649944 	-5.38183e-23 -0.028662 	0.000722436 	-2.66015e-22 -0.0287197 	0.000793275 	-3.97445e-22 -0.0286626 	0.000861366 	-4.04636e-22 -0.0283871 	0.00101912 	-2.76495e-22 -0.0280132 	0.00122583 	-7.67436e-23 -0.0280574 	0.00124522 	-1.15099e-22 -0.0280752 	0.00127429 	-1.44831e-22 -0.0279888 	0.00133917 	-1.42267e-22 -0.0276012 	0.00155246 	-8.00129e-23 -0.0271892 	0.00179523 	-7.34959e-24 -0.0271565 	0.00176982 	3.36297e-23 -0.0271206 	0.00174405 	7.4623e-23 -0.0269691 	0.00182735 	5.86617e-23 -0.0265054 	0.00209692 	8.41802e-24 -0.0260796 	0.00237229 	-4.16556e-23 -0.0259818 	0.00231266 	-1.8335e-22 -0.0258775 	0.00225202 	-3.25098e-22 -0.0255802 	0.00236922 	-3.16047e-22 -0.0251229 	0.0026661 	-1.56789e-22 -0.0247064 	0.0029708 	2.90932e-24 -0.0245581 	0.00288913 	1.41428e-22 -0.0244019 	0.00280592 	2.79896e-22 -0.0238987 	0.00296753 	2.91631e-22 -0.0234656 	0.00326996 	2.15072e-22 -0.0230793 	0.00360066 	1.26772e-22 -0.0228961 	0.00351 	2.54041e-22 -0.0225201 	0.00357032 	2.8685e-22 -0.0220288 	0.00374055 	2.539e-22 -0.0215651 	0.00392009 	2.19841e-22 -0.0212248 	0.00427151 	8.51098e-23 -0.0210263 	0.00423581 	7.81048e-23 -0.0206415 	0.0043748 	1.0729e-22 -0.0202745 	0.00452084 	1.36949e-22 -0.0199263 	0.00467426 	1.67102e-22 -0.0196864 	0.00479188 	1.89489e-22 -0.019591 	0.00484497 	1.91432e-22 -0.0194976 	0.00489888 	1.93314e-22 -0.0194063 	0.0049536 	1.95133e-22 -0.019317 	0.00500915 	1.96888e-22 -0.0191639 	0.00511225 	2.04706e-22 -0.0186748 	0.00525726 	1.85351e-22 -0.0182654 	0.00546549 	1.89561e-22 -0.0178867 	0.0056885 	1.91518e-22 -0.0174642 	0.0059832 	2.10114e-22 -0.0169044 	0.00643149 	2.66525e-22 -0.0164312 	0.00655167 	1.51062e-22 -0.0159875 	0.00668976 	3.47919e-23 -0.0154451 	0.006944 	0 -0.0150033 	0.00736359 	3.77769e-23 -0.0145841 	0.0078571 	7.6764e-23 -0.0144455 	0.00792614 	3.29138e-23 -0.0142985 	0.00800807 	0 -0.0141171 	0.00812237 	0 -0.013943 	0.0082418 	0 -0.0138024 	0.00834683 	0 -0.0134827 	0.00859835 	0 -0.0131858 	0.00886871 	0 -0.0129126 	0.00915822 	0 -0.0125803 	0.00948042 	0 -0.0122138 	0.00988511 	0 -0.0118753 	0.0101396 	0 -0.011569 	0.0104232 	0 -0.0112491 	0.0107164 	0 -0.0109494 	0.011034 	0 -0.0107599 	0.0112829 	0 -0.0105421 	0.0115471 	0 -0.0103381 	0.0118255 	0 -0.010132 	0.0120895 	-1.59606e-23 -0.00992658 	0.0123445 	-4.45331e-23 -0.00968558 	0.0126806 	-8.02907e-23 -0.00944532 	0.0129688 	-8.57245e-23 -0.00922616 	0.013281 	-9.20823e-23 -0.00903265 	0.0135998 	-1.19314e-22 -0.00888491 	0.0138496 	-2.54964e-22 -0.00877178 	0.0140764 	-3.70566e-22 -0.00826482 	0.0146671 	-5.77136e-22 -0.0078173 	0.0153124 	-7.50929e-22 -0.00749998 	0.0157753 	-4.8778e-22 -0.00721693 	0.0162863 	-2.29028e-22 -0.00704486 	0.0169445 	9.78619e-23 -0.00697273 	0.0171023 	1.92091e-22 -0.0069128 	0.0172294 	2.2163e-22 -0.00686349 	0.0173294 	1.94152e-22 -0.0068152 	0.0174309 	1.67013e-22 -0.00676099 	0.017549 	1.36286e-22 -0.00653531 	0.0180181 	1.29144e-22 -0.00633208 	0.0185249 	1.23187e-22 -0.00614999 	0.019067 	1.18345e-22 -0.00608006 	0.0195133 	1.24048e-22 -0.00618698 	0.0197239 	1.46597e-22 -0.00564149 	0.0203333 	9.25953e-23 -0.00512861 	0.0210272 	3.95629e-23 -0.00504716 	0.0217779 	1.85675e-22 -0.00526317 	0.0221244 	3.79323e-22 -0.00545753 	0.022431 	5.58244e-22 -0.00489938 	0.023275 	2.5129e-22 -0.0044424 	0.0240953 	0 -0.00434326 	0.0243947 	0 -0.00445842 	0.0247528 	3.04248e-25 -0.00471892 	0.0251148 	8.16345e-25 -0.00415323 	0.0262122 	4.95007e-26 -0.00402593 	0.0266013 	0 -0.00393347 	0.0269633 	0 -0.00384596 	0.0273486 	0 -0.00398797 	0.0277371 	-1.29994e-22 -0.00372251 	0.0283894 	0 -0.0036603 	0.0286502 	0 -0.00360025 	0.0289226 	0 -0.0035423 	0.0292063 	0 -0.00345456 	0.0296688 	0 -0.0034349 	0.0297854 	0 -0.00341551 	0.0299034 	0 -0.00339638 	0.030023 	0 -0.00337752 	0.0301439 	0 -0.00339636 	0.03011 	0 -0.00326198 	0.0305508 	0 -0.00317665 	0.0310048 	0 -0.00309559 	0.0314851 	0 -0.00301862 	0.0319906 	0 -0.0031278 	0.0316854 	0 -0.00283894 	0.0323291 	0 -0.00275708 	0.032839 	0 -0.00267912 	0.033376 	0 -0.00260927 	0.0339172 	0 -0.0028492 	0.0329542 	0 -0.00248771 	0.0338377 	0 -0.00235611 	0.0344659 	0 -0.00228085 	0.0350508 	0 -0.002324 	0.0350406 	0 -0.00256825 	0.0339266 	0 -0.00221071 	0.0349719 	0 -0.00198068 	0.0358659 	0 -0.00190867 	0.0364884 	0 -0.00205091 	0.035903 	0 -0.00229628 	0.0346432 	0 -0.00194721 	0.0358447 	0 -0.00164238 	0.0370684 	7.4996e-38 -0.00157574 	0.037718 	6.31342e-37 -0.00180207 	0.0365586 	1.18922e-36 -0.00204692 	0.0351607 	1.7402e-36 -0.00170997 	0.0365093 	1.12491e-36 -0.00138062 	0.0379925 	5.15885e-37 -0.00133702 	0.0384559 	7.70835e-40 -0.00158872 	0.0370263 	1.64393e-39 -0.0018341 	0.0354983 	2.50636e-39 -0.00151163 	0.0369836 	1.55612e-39 -0.00119615 	0.0386078 	6.15166e-40 -0.00116843 	0.0388702 	-3.78314e-37 -0.00142555 	0.0373247 	-9.4189e-37 -0.0016766 	0.0356719 	-1.499e-36 -0.0013693 	0.0372851 	-8.91185e-37 -0.00106854 	0.039041 	-2.89076e-37 -0.00105838 	0.0391338 	0 -0.00133259 	0.0374749 	0 -0.00160043 	0.0356943 	0 -0.00130728 	0.0374341 	0 -0.00102061 	0.0393215 	0 -0.00102418 	0.0392481 	0 -0.00133593 	0.0374659 	0 -0.00163996 	0.0355367 	0 -0.00135902 	0.0374192 	0 -0.00108516 	0.0394584 	0 -0.00108634 	0.0391695 	0 -0.0014677 	0.0372289 	0 -0.00183774 	0.0350946 	0 -0.00156865 	0.0371732 	0 -0.00131542 	0.0393332 	0 -0.00129306 	0.0386647 	0 -0.00175471 	0.0365627 	0 -0.0022311 	0.0341004 	0 -0.00198111 	0.0365053 	0 -0.00178994 	0.0381576 	0 -0.00174148 	0.0371247 	0 -0.00216804 	0.0349418 	0 -0.0027946 	0.0319091 	0 -0.00259138 	0.0349297 	0 -0.00243982 	0.0354268 	0 -0.00232108 	0.0337026 	0 -0.00249177 	0.0313445 	0 -0.00329272 	0.0273126 	0 -0.00320844 	0.0315653 	0 -0.00292341 	0.0290899 	0 -0.00262221 	0.0260928 	0 -0.00232102 	0.0230957 	0 -0.00292363 	0.0178819 	0 -0.00282218 	0.0203152 	0 -0.00222052 	0.0159841 	0 -0.00161885 	0.0116531 	0 -0.00101718 	0.00732202 	0 0 	0 	0
-0.0417405 	6.80911e-05 	0 -0.0417083 	0.000272023 	-2.38963e-23 -0.0416258 	0.000496629 	-5.45652e-23 -0.0415631 	0.000721752 	-8.53973e-23 -0.0415204 	0.000947388 	-1.16392e-22 -0.041455 	0.00116432 	-1.47841e-22 -0.0413096 	0.00135299 	-1.8459e-22 -0.0411277 	0.00156379 	-1.88853e-22 -0.040965 	0.00177607 	-1.92204e-22 -0.0408214 	0.00198985 	-1.94633e-22 -0.0407834 	0.00205592 	-1.95093e-22 -0.0407682 	0.00208609 	-1.95975e-22 -0.0407535 	0.0021163 	-1.9685e-22 -0.0407392 	0.00214654 	-1.97718e-22 -0.0407253 	0.00217681 	-1.98578e-22 -0.040701 	0.00221234 	-2.00529e-22 -0.0404314 	0.00241251 	-1.66948e-22 -0.0401763 	0.0026141 	-1.33466e-22 -0.0399408 	0.00281827 	-9.97245e-23 -0.0397254 	0.00302507 	-6.57193e-23 -0.039418 	0.00329287 	-3.72863e-23 -0.0391133 	0.0034816 	-5.11725e-23 -0.0387992 	0.00367799 	-4.36258e-23 -0.0385049 	0.00387797 	-3.6232e-23 -0.0382308 	0.00408161 	-2.89947e-23 -0.0377189 	0.00443186 	3.09911e-23 -0.0373689 	0.00458161 	1.51148e-22 -0.0370184 	0.00477935 	1.84933e-22 -0.0366884 	0.00498184 	2.1961e-22 -0.0362797 	0.005248 	2.06532e-22 -0.035656 	0.00566409 	7.75409e-23 -0.0352504 	0.00579215 	4.72621e-23 -0.0348673 	0.00594224 	2.64693e-23 -0.0345252 	0.00615526 	3.75812e-23 -0.0338878 	0.00657477 	6.71436e-23 -0.0332777 	0.00701821 	9.67793e-23 -0.0328478 	0.00714511 	5.25158e-23 -0.0324351 	0.00727855 	8.07052e-24 -0.0317922 	0.00758534 	0 -0.0311953 	0.00803543 	1.50243e-23 -0.0306312 	0.00851414 	3.00784e-23 -0.0302088 	0.00865861 	4.42326e-24 -0.0295788 	0.00897329 	0 -0.0289371 	0.00933996 	0 -0.0283364 	0.00972782 	0 -0.0278163 	0.01011 	0 -0.0278052 	0.01012 	0 -0.0277941 	0.01013 	0 -0.027783 	0.01014 	0 -0.02777 	0.0101511 	0 -0.0277529 	0.0101643 	0 -0.0271096 	0.0105468 	0 -0.0265133 	0.0109601 	0 -0.0259603 	0.0114005 	0 -0.0253535 	0.0119168 	0 -0.0245953 	0.0125892 	0 -0.0239773 	0.0129716 	0 -0.0233876 	0.0133963 	0 -0.0226675 	0.0139269 	0 -0.0220122 	0.0145041 	0 -0.0213573 	0.0152 	0 -0.0213529 	0.0152059 	0 -0.0213485 	0.0152119 	0 -0.021344 	0.0152179 	0 -0.021338 	0.015224 	0 -0.021332 	0.0152301 	0 -0.0205863 	0.0158366 	0 -0.0199118 	0.0165082 	0 -0.0192885 	0.0172361 	3.9781e-25 -0.0185995 	0.0179813 	3.98847e-24 -0.0177902 	0.019048 	8.72652e-24 -0.0177055 	0.0191616 	8.74794e-24 -0.0176225 	0.019277 	8.77271e-24 -0.0175364 	0.0193853 	3.89906e-24 -0.0174452 	0.019483 	-7.9009e-24 -0.0173599 	0.0195775 	-1.91275e-23 -0.0165978 	0.0203955 	-2.62903e-24 -0.0159135 	0.0213022 	1.74785e-23 -0.0152759 	0.0221428 	-3.08635e-23 -0.0147333 	0.0229994 	-1.36957e-22 -0.0143681 	0.0238203 	-2.49245e-22 -0.014269 	0.0240264 	-3.2605e-22 -0.0141719 	0.0242286 	-3.8561e-22 -0.0140743 	0.0243855 	-3.13298e-22 -0.0139786 	0.0245447 	-2.41509e-22 -0.0138744 	0.0247242 	-1.62219e-22 -0.0134507 	0.025409 	1.56463e-22 -0.0130663 	0.0261429 	4.65225e-22 -0.0127193 	0.0269231 	7.64353e-22 -0.0124923 	0.027485 	5.37917e-22 -0.0123342 	0.0279404 	1.98951e-22 -0.0117099 	0.0289713 	-7.57816e-23 -0.0111375 	0.0300827 	-3.54295e-22 -0.0107715 	0.0307662 	1.53641e-23 -0.0105612 	0.031509 	7.74278e-22 -0.0104728 	0.0322278 	1.69879e-21 -0.0101258 	0.0330747 	2.36548e-21 -0.00989001 	0.0336468 	2.11593e-21 -0.00969336 	0.0341509 	1.60561e-21 -0.00950665 	0.0346734 	1.10616e-21 -0.00924642 	0.0354671 	3.87905e-22 -0.00916811 	0.0357338 	2.90807e-22 -0.00909182 	0.0360044 	1.93932e-22 -0.0090175 	0.0362789 	9.72767e-23 -0.00894776 	0.0365523 	2.82154e-24 -0.00900561 	0.0365995 	2.97297e-24 -0.00853189 	0.0374903 	-9.50907e-23 -0.00827241 	0.0384409 	-3.05859e-22 -0.00803401 	0.0394366 	-5.20545e-22 -0.0079308 	0.0402407 	-7.38652e-22 -0.00816472 	0.040391 	-9.51657e-22 -0.0075143 	0.0415088 	-6.26222e-22 -0.00695506 	0.0427016 	-1.31435e-22 -0.00677396 	0.0438423 	1.25583e-21 -0.0070637 	0.0440039 	2.35007e-21 -0.00733703 	0.044132 	3.40702e-21 -0.00668102 	0.045472 	1.91001e-21 -0.0060511 	0.0469117 	4.33459e-22 -0.00589967 	0.0475398 	7.10795e-25 -0.00621976 	0.0476682 	3.56662e-24 -0.00652398 	0.0477578 	6.34423e-24 -0.00586697 	0.0493144 	2.66053e-24 -0.00537335 	0.0506096 	0 -0.00527108 	0.0509936 	0 -0.00541264 	0.0511995 	-3.03098e-21 -0.00573797 	0.0512318 	-8.38674e-21 -0.00508511 	0.0529928 	-1.66117e-21 -0.00484907 	0.0537343 	0 -0.00475023 	0.0541451 	0 -0.00465699 	0.0545725 	-7.37614e-26 -0.00499441 	0.0545277 	-1.05633e-23 -0.00443793 	0.0562091 	0 -0.00434121 	0.0566184 	0 -0.00424681 	0.0570481 	0 -0.00415466 	0.0574978 	0 -0.0043062 	0.0576051 	2.47999e-21 -0.00395333 	0.0588101 	3.2173e-37 -0.00386385 	0.0592314 	9.42579e-37 -0.00377633 	0.0596725 	1.56235e-36 -0.00369073 	0.0601329 	2.18107e-36 -0.00369253 	0.0604516 	2.90717e-36 -0.00355013 	0.0610285 	3.1639e-36 -0.00350158 	0.0612899 	2.65663e-36 -0.00345365 	0.0615582 	2.15196e-36 -0.00340633 	0.0618335 	1.64986e-36 -0.00334453 	0.0622066 	9.89162e-37 -0.00331935 	0.0623663 	7.81612e-37 -0.00329434 	0.0625279 	5.74163e-37 -0.00326951 	0.0626916 	3.66815e-37 -0.00324485 	0.0628571 	1.59566e-37 -0.00324692 	0.0628429 	4.43704e-39 -0.00316188 	0.0633586 	-4.95168e-37 -0.0031032 	0.0637939 	-1.04772e-36 -0.00304569 	0.064244 	-1.60105e-36 -0.00298934 	0.0647086 	-2.15512e-36 -0.00303022 	0.0644717 	-2.70922e-36 -0.00290389 	0.0653059 	-2.10141e-36 -0.00287723 	0.0657531 	-1.49499e-36 -0.00285124 	0.0662093 	-8.88972e-37 -0.0028259 	0.0666742 	-2.83335e-37 -0.00295451 	0.0658942 	0 -0.00279405 	0.0670853 	0 -0.0028199 	0.0675622 	0 -0.00284566 	0.0680378 	0 -0.00287133 	0.0685123 	0 -0.00309859 	0.0671442 	0 -0.00289395 	0.0687507 	0 -0.00300472 	0.0692916 	0 -0.00311403 	0.0698143 	0 -0.00322193 	0.0703191 	0 -0.00357256 	0.0682236 	0 -0.00330347 	0.0703022 	0 -0.00352769 	0.0710257 	0 -0.00376959 	0.0716441 	0 -0.00404949 	0.0716531 	0 -0.00451645 	0.0690299 	0 -0.00426646 	0.0714348 	0 -0.00448765 	0.0728211 	0 -0.00493496 	0.0736192 	0 -0.00545731 	0.0725221 	0 -0.00606193 	0.0692159 	0 -0.00585871 	0.0722365 	0 -0.00592933 	0.0748148 	0 -0.00668264 	0.0759432 	0 -0.00745498 	0.0725435 	0 -0.0081944 	0.0679713 	0 -0.00811011 	0.072224 	0 -0.00804844 	0.076669 	0 -0.00878677 	0.0766455 	0 -0.00962433 	0.0702936 	0 -0.0103625 	0.0633805 	0 -0.010549 	0.0701655 	0 -0.0107928 	0.0773126 	0 -0.0101342 	0.0729499 	0 -0.010537 	0.0629619 	0 -0.0108195 	0.0519102 	0 -0.0115242 	0.0641063 	0 -0.010847 	0.0630467 	0 -0.00934207 	0.0542993 	0 -0.00783711 	0.045552 	0 -0.00652812 	0.0283608 	0 -0.00716174 	0.0419579 	0 -0.00581876 	0.0340899 	0 -0.00447579 	0.026222 	0 -0.00313281 	0.018354 	0 0 	0 	0