# vtk DataFile Version 2.0
track0
ASCII
DATASET POLYDATA
POINTS 37556 float
0.05 8.57988e-20 2.57396e-18
0.05 0.00217391 -1.05592e-17
0.05 0.00217391 -1.05592e-17
0.05 0.00217391 -1.05592e-17
0.05 0.00217391 -1.05592e-17
0.05 0.00217391 -1.05592e-17
0.05 0.00217391 -1.38778e-17
0.0493333 0.0021759 -8.74301e-18
0.0486667 0.00217873 -8.53484e-18
0.048 0.00218296 -7.15459e-18
0.0473334 0.00219025 -7.11694e-18
0.0466667 0.00220013 -1.80411e-17
0.046 0.00221254 -8.74301e-18
0.0453333 0.00222424 -9.22871e-18
0.0446667 0.00223645 -1.17493e-17
0.044 0.00225157 -2.03899e-17
0.0433333 0.00227016 -3.19189e-17
0.0426667 0.00229266 -2.26208e-17
0.0419999 0.0023131 -1.92906e-17
0.0413332 0.00233373 -2.02634e-17
0.0406666 0.00235723 -1.9885e-17
0.04 0.00238467 -2.498e-17
0.0393333 0.00241729 -2.33147e-17
0.0386665 0.00244671 -2.90043e-17
0.0379997 0.00247684 -2.6268e-17
0.0373331 0.0025099 -2.50789e-17
0.0366667 0.00254676 -1.80411e-17
0.036 0.00258999 -2.1233e-17
0.0353331 0.00262909 -1.6512e-17
0.0346663 0.00267045 -9.95798e-18
0.0339997 0.00271494 -1.72581e-17
0.0333333 0.00276269 -6.93889e-18
0.0326667 0.00281759 -1.13798e-17
0.0319997 0.00286936 -6.45275e-18
0.0313331 0.0029245 -6.78745e-18
0.0306668 0.00298317 -5.02388e-18
0.03 0.00304556 0
0.0294392 0.00310311 -4.61722e-18
0.0288784 0.00316036 -6.45884e-18
0.0283179 0.00322036 -9.92833e-18
0.0277577 0.00328322 -1.28383e-17
0.0273313 0.00333333 -1.91565e-17
0.0271983 0.00334951 -1.39374e-17
0.0270654 0.00336587 -1.14939e-17
0.0269326 0.0033824 -1.0438e-17
0.0267997 0.00339911 -1.77088e-17
0.0266667 0.00341603 -2.06101e-17
0.026 0.0035035 -1.20649e-17
0.0253338 0.00359426 -7.67489e-18
0.0246682 0.00368979 -8.46803e-18
0.0240034 0.00379031 -4.58532e-18
0.0233333 0.00389694 -3.71415e-18
0.0226667 0.00402166 -3.22796e-18
0.0219994 0.0041431 -3.43021e-18
0.0213332 0.00427007 -5.34117e-18
0.0206681 0.00440314 -4.81983e-18
0.02 0.0045529 5.85523e-18
0.0193333 0.00472981 -2.50446e-18
0.0186665 0.00490601 -6.60692e-18
0.0179994 0.00508143 -6.64875e-18
0.0173357 0.00526929 -5.22538e-18
0.0166667 0.00548817 -1.38778e-17
0.016039 0.00572387 -8.14651e-18
0.0154122 0.00596192 -1.28481e-17
0.01479 0.00621184 -2.05438e-17
0.0141755 0.00647998 -1.89847e-17
0.0137821 0.00666667 -2.43396e-17
0.0136924 0.00671165 -2.55779e-17
0.0136029 0.00675717 -2.12656e-17
0.0135137 0.00680321 -1.55659e-17
0.0134247 0.00684978 -1.77149e-17
0.0133333 0.00689852 -1.56517e-17
0.0126667 0.0072618 -2.18078e-17
0.0120127 0.00764744 -2.31439e-17
0.0113742 0.00805827 -2.15757e-17
0.0107531 0.00849487 -1.39947e-17
0.01 0.00908606 -6.93889e-18
0.00979674 0.00926885 -1.19823e-17
0.00959548 0.00945382 -1.70306e-17
0.00939623 0.00964097 -2.23249e-17
0.00919906 0.00983031 -1.86541e-17
0.00902624 0.01 -1.11022e-17
0.00855433 0.0104726 -1.68606e-17
0.00810562 0.0109672 -1.861e-17
0.00768152 0.0114832 -2.07307e-17
0.0072808 0.0120175 -1.61967e-17
0.00666667 0.0129079 -1.249e-17
0.00661532 0.012993 -1.25755e-17
0.00656432 0.0130783 -1.5436e-17
0.00651365 0.0131638 -1.41326e-17
0.00646332 0.0132495 -1.90903e-17
0.00641423 0.0133333 -1.80411e-17
0.00602499 0.014 -1.08247e-17
0.00567191 0.0146865 -1.71721e-17
0.00534898 0.0153877 -1.57816e-17
0.00505268 0.0161005 -1.78228e-17
0.0048195 0.0166667 -2.49105e-17
0.00454671 0.0173333 -2.40307e-17
0.00431248 0.0180145 -2.30307e-17
0.00410457 0.0187042 -2.52159e-17
0.00390703 0.0193969 -3.00557e-17
0.00374427 0.02 -3.18617e-17
0.00366209 0.0202985 -3.3816e-17
0.00358723 0.0205989 -2.37116e-17
0.00351467 0.0208998 -3.14163e-17
0.00344392 0.0212012 -2.59393e-17
0.00333333 0.0216851 -2.08167e-17
0.00326115 0.0220148 -1.95491e-17
0.00319083 0.0223448 -2.24418e-17
0.00312231 0.0226752 -1.83925e-17
0.00305555 0.023006 -1.7116e-17
0.00299122 0.0233333 -1.80411e-17
0.00285651 0.024 -1.15186e-17
0.00273558 0.0246693 -1.29801e-17
0.0026219 0.0253399 -1.27945e-17
0.00251493 0.0260115 -1.10649e-17
0.00241324 0.0266667 -6.93889e-18
0.00229881 0.0273333 -4.57967e-18
0.00220249 0.0280029 -4.64192e-18
0.00211976 0.0286742 4.07606e-19
0.00204241 0.0293462 -5.13602e-18
0.00195766 0.03 0
0.00185882 0.0306667 -4.57967e-18
0.00177924 0.0313359 -5.34723e-18
0.00171799 0.0320071 -7.06774e-18
0.00165881 0.0326784 -1.2206e-17
0.00158772 0.0333333 -1.864e-17
0.00150134 0.034 -1.46544e-17
0.00143559 0.034669 -1.69466e-17
0.00138896 0.0353396 -2.19712e-17
0.00134336 0.0360103 -2.38359e-17
0.00128395 0.0366667 -2.01793e-17
0.00120786 0.0373333 -2.00526e-17
0.00115406 0.0380022 -2.05145e-17
0.0011154 0.038672 -1.79113e-17
0.00107674 0.0393419 -1.83847e-17
0.0010278 0.04 -2.11405e-17
0.000960443 0.0406667 -1.40895e-17
0.000917435 0.0413353 -1.11002e-17
0.000883435 0.0420045 -1.1318e-17
0.000849434 0.0426737 -1.33882e-17
0.000810333 0.0433333 -2.21662e-17
0.000750528 0.044 -2.41482e-17
0.000717696 0.0446685 -2.25639e-17
0.000687722 0.0453372 -2.86641e-17
0.000657747 0.0460059 -2.31857e-17
0.000628125 0.0466667 -2.25566e-17
0.000574913 0.0473333 -2.38731e-17
0.000548437 0.0480016 -2.43641e-17
0.000521962 0.0486699 -2.31118e-17
0.000495486 0.0493381 -2.31839e-17
0.000469263 0.05 -2.29859e-17
0.000421783 0.0506667 -2.57865e-17
0.000398311 0.0513346 -2.34208e-17
0.000374839 0.0520026 -2.44985e-17
0.000351366 0.0526705 -1.97128e-17
0.000328073 0.0533333 -2.83019e-17
0.000285459 0.054 -3.02432e-17
0.000264455 0.0546677 -2.31983e-17
0.000243451 0.0553354 -2.34569e-17
0.000222447 0.0560031 -2.45688e-17
0.000201573 0.0566667 -2.39279e-17
0.000162842 0.0573333 -2.3794e-17
0.000143655 0.0580008 -2.71607e-17
0.000124468 0.0586684 -1.79052e-17
0.00010528 0.0593359 -2.10985e-17
8.61907e-05 0.06 -8.47021e-18
6.89525e-05 0.0603186 -8.77828e-18
6.02345e-05 0.0606376 -4.58968e-18
5.15164e-05 0.0609565 -4.044e-18
4.27983e-05 0.0612755 -1.04372e-17
0 0.0628413 2.20726e-18
0.05 0.00434783 5.94331e-18
0.0493333 0.00435 1.07969e-17
0.0486667 0.00435498 7.31918e-18
0.0480001 0.00436219 2.98364e-18
0.0473334 0.00437101 3.39324e-18
0.0466667 0.00438276 6.57903e-18
0.046 0.00439856 1.00222e-17
0.0453334 0.00441581 1.06873e-17
0.0446668 0.00443456 6.45392e-18
0.0440002 0.00445488 7.26461e-19
0.0433333 0.00447914 1.17959e-17
0.0426667 0.00450863 8.52295e-18
0.042 0.00453841 1.18438e-17
0.0413334 0.00456875 1.26981e-17
0.0406668 0.00460069 8.77605e-18
0.04 0.00463827 9.49343e-19
0.0393333 0.00468236 1.22287e-18
0.0386666 0.00472578 -5.78834e-18
0.0379999 0.00476855 -5.29449e-18
0.0373333 0.0048136 3.4367e-18
0.0366667 0.0048662 5.15333e-18
0.036 0.00492668 -3.60421e-18
0.0353332 0.00498582 -6.63453e-18
0.0346663 0.00504358 -5.21744e-18
0.0339997 0.00510502 -4.28014e-19
0.0333333 0.0051754 1.11022e-17
0.0326667 0.0052552 9.29812e-18
0.0319998 0.00533326 7.77019e-18
0.0313327 0.00540954 4.92862e-18
0.0306664 0.00549183 4.73205e-18
0.03 0.00558418 0
0.0293333 0.00568766 3.05311e-18
0.0286664 0.00578934 1.87396e-18
0.028 0.00589442 2.32214e-18
0.0273347 0.00600676 -6.68675e-18
0.0266667 0.00612754 -1.11022e-17
0.0261282 0.00623537 -8.81776e-18
0.0255898 0.0063433 -9.30888e-18
0.0250525 0.00645667 -1.39652e-17
0.0245164 0.00657573 -1.89979e-17
0.0241274 0.00666667 -2.35268e-17
0.0239686 0.00670519 -1.77112e-17
0.0238099 0.00674429 -2.16103e-17
0.0236514 0.00678397 -1.85708e-17
0.023493 0.00682424 -1.8307e-17
0.0233333 0.00686547 -2.39233e-17
0.0226667 0.00704248 -2.00548e-17
0.0220025 0.00722867 -2.17526e-17
0.0213415 0.0074257 -2.61393e-17
0.0206839 0.00763409 -3.28346e-17
0.02 0.00786761 -2.61434e-17
0.0193333 0.00812051 -2.62055e-17
0.0186708 0.00838406 -2.51119e-17
0.0180129 0.00865886 -2.58173e-17
0.0173624 0.00895085 -2.25389e-17
0.0166667 0.00929208 -3.05311e-17
0.016404 0.00943367 -3.23564e-17
0.0161424 0.00957733 -2.54947e-17
0.0158822 0.00972335 -2.7143e-17
0.0156237 0.00987245 -3.08759e-17
0.0154086 0.01 -2.91434e-17
0.0149936 0.010252 -3.50903e-17
0.0145847 0.0105139 -3.9207e-17
0.0141823 0.0107857 -4.02717e-17
0.0137869 0.0110676 -2.53453e-17
0.0133333 0.0114111 -3.16668e-17
0.0128608 0.0117956 -3.54814e-17
0.0123988 0.0121925 -3.69447e-17
0.0119477 0.0126019 -3.72441e-17
0.0115083 0.0130238 -3.54736e-17
0.0112038 0.0133333 -3.4233e-17
0.0109631 0.013588 -3.18273e-17
0.010728 0.013848 -3.64175e-17
0.0104987 0.0141131 -3.28386e-17
0.0102751 0.014383 -3.20167e-17
0.01 0.0147292 -4.03157e-17
0.00970782 0.0151167 -4.21199e-17
0.00942445 0.0155107 -3.14896e-17
0.00914982 0.0159108 -3.46664e-17
0.00888351 0.0163165 -3.00596e-17
0.00866133 0.0166667 -2.35922e-17
0.0082624 0.0173136 -2.7846e-17
0.00789295 0.0179779 -2.97025e-17
0.00755146 0.0186569 -3.04167e-17
0.00722935 0.0193454 -3.00847e-17
0.00694412 0.02 -2.56747e-17
0.00688863 0.0201343 -2.99767e-17
0.00683427 0.020269 -3.67807e-17
0.0067808 0.0204041 -3.07421e-17
0.00672806 0.0205395 -3.63269e-17
0.00666667 0.0206995 -3.9886e-17
0.00646825 0.0212263 -3.61415e-17
0.00627938 0.0217565 -3.11761e-17
0.00609957 0.0222899 -3.28633e-17
0.0059283 0.0228261 -3.41587e-17
0.00577156 0.0233333 -3.747e-17
0.0055641 0.024 -2.7478e-17
0.00537846 0.0246731 -2.27008e-17
0.00521272 0.0253513 -2.29057e-17
0.00505546 0.0260316 -2.71107e-17
0.00490464 0.0266667 -2.60856e-17
0.00474261 0.0273333 -2.54495e-17
0.004601 0.0280046 -3.05008e-17
0.00447712 0.0286794 -2.72911e-17
0.00435719 0.0293549 -2.36553e-17
0.00424008 0.03 -2.57962e-17
0.00411376 0.0306667 -1.86469e-17
0.00400623 0.0313366 -1.69358e-17
0.0039043 0.0320074 -1.618e-17
0.00380579 0.0326788 -1.69511e-17
0.00371303 0.0333333 -2.42246e-17
0.00363709 0.0338511 -2.39297e-17
0.0035686 0.03437 -2.50332e-17
0.00350199 0.0348891 -1.98945e-17
0.00343722 0.0354084 -2.91296e-17
0.00333333 0.0362654 -2.498e-17
0.00332405 0.0363456 -2.22199e-17
0.0033148 0.0364259 -2.36231e-17
0.00330559 0.0365062 -2.36384e-17
0.00329642 0.0365864 -2.92048e-17
0.00328729 0.0366667 -2.91434e-17
0.0032112 0.0373333 -3.3723e-17
0.00313842 0.0380004 -3.17114e-17
0.00306834 0.0386677 -3.3748e-17
0.00300085 0.0393353 -3.24726e-17
0.00293616 0.04 -3.05311e-17
0.00286881 0.0406667 -3.23352e-17
0.00280821 0.041334 -3.62221e-17
0.00275003 0.0420015 -3.70536e-17
[...]
POINT_DATA 37556
 FIELD attributes 1
U 3 37556 float
-5.68259e-19 	-1.10728e-21 	0
-0.0133294 	3.97508e-05 	0 -0.0133294 	3.97508e-05 	0 -0.0133294 	3.97508e-05 	0 -0.0133294 	3.97508e-05 	0 -0.0133294 	3.97508e-05 	0 -0.0133294 	3.97508e-05 	0 -0.0136468 	5.79187e-05 	0 -0.0138703 	8.80485e-05 	-6.97943e-25 -0.0138298 	0.000151101 	-3.31781e-24 -0.0135882 	0.000201455 	-5.94948e-24 -0.0132785 	0.00024713 	-8.59166e-24 -0.0135886 	0.000238566 	3.3224e-22 -0.0137622 	0.000251965 	5.57937e-22 -0.0136706 	0.000310108 	5.50204e-22 -0.0134485 	0.00037506 	3.28734e-22 -0.0131631 	0.000444232 	-1.36971e-23 -0.0134542 	0.000412376 	1.74244e-22 -0.0135451 	0.000419205 	2.89636e-22 -0.0134121 	0.000472786 	3.183e-22 -0.0132195 	0.000544114 	2.58956e-22 -0.012968 	0.000634626 	1.05685e-22 -0.0132307 	0.000583636 	7.75856e-23 -0.0132119 	0.000597019 	7.33698e-23 -0.0130492 	0.000647104 	8.26358e-23 -0.0128807 	0.000712441 	9.91465e-23 -0.0126703 	0.000821631 	1.36971e-22 -0.0128975 	0.000756126 	1.03441e-22 -0.0127505 	0.000790869 	7.48508e-23 -0.0125704 	0.00083908 	4.70378e-23 -0.0124042 	0.0008888 	1.94285e-23 -0.0122421 	0.00100809 	2.27209e-23 -0.0123507 	0.000958742 	-4.06432e-23 -0.0121517 	0.00100521 	-3.82658e-23 -0.011966 	0.00105347 	-3.54678e-23 -0.0117943 	0.00110362 	-3.22312e-23 -0.0116614 	0.00119685 	6.56185e-24 -0.0116297 	0.00118716 	-3.11314e-23 -0.0114649 	0.00122726 	-2.22268e-23 -0.0113096 	0.00126891 	-1.28696e-23 -0.0111641 	0.00131218 	-3.04353e-24 -0.0110611 	0.0013464 	4.8093e-24 -0.0110312 	0.00135762 	7.40181e-24 -0.011002 	0.00136894 	1.00239e-23 -0.0109733 	0.00138037 	1.26757e-23 -0.0109453 	0.0013919 	1.53575e-23 -0.010886 	0.00142823 	5.88109e-24 -0.0106811 	0.00145504 	4.7205e-24 -0.0105027 	0.0015076 	5.57189e-24 -0.0103381 	0.00156299 	6.40095e-24 -0.0101879 	0.00162133 	7.20668e-24 -0.00986555 	0.00184558 	3.8223e-23 -0.00957431 	0.00174259 	2.86645e-22 -0.00941259 	0.00179376 	3.46204e-22 -0.00926943 	0.00185465 	4.00214e-22 -0.00903382 	0.00202502 	3.30665e-22 -0.00872264 	0.00231475 	1.3737e-22 -0.00846561 	0.00223681 	3.46887e-22 -0.00820701 	0.0021582 	5.56389e-22 -0.0079435 	0.00224851 	5.68642e-22 -0.00769098 	0.00251605 	3.86087e-22 -0.00747893 	0.0028084 	2.04589e-22 -0.00728333 	0.0027661 	3.76031e-22 -0.00702482 	0.00282184 	4.04981e-22 -0.00674807 	0.00294457 	3.50293e-22 -0.00650283 	0.00308585 	2.92594e-22 -0.00636566 	0.00319045 	2.53059e-22 -0.00633084 	0.00321962 	2.43965e-22 -0.00629691 	0.00324937 	2.34788e-22 -0.00626385 	0.0032797 	2.25528e-22 -0.00622016 	0.00331819 	2.24617e-22 -0.00617058 	0.00336243 	2.27747e-22 -0.00582994 	0.00343783 	1.54346e-22 -0.00558863 	0.00359609 	8.6365e-23 -0.005377 	0.00377966 	1.76824e-23 -0.00512764 	0.00402521 	2.34316e-23 -0.00486634 	0.00437631 	2.84765e-23 -0.00480716 	0.004418 	1.64482e-23 -0.00475119 	0.00446272 	4.41365e-24 -0.00469673 	0.00451016 	2.56425e-23 -0.00464458 	0.00456048 	6.61381e-23 -0.00460132 	0.00460781 	1.02024e-22 -0.00433611 	0.00478019 	1.01954e-22 -0.00409903 	0.00498654 	9.71394e-23 -0.00389666 	0.00519553 	8.75554e-23 -0.0037269 	0.00540387 	7.36341e-23 -0.00349144 	0.00578545 	4.47992e-23 -0.00347598 	0.00581215 	7.3545e-23 -0.00346089 	0.00583935 	1.0202e-22 -0.00344617 	0.00586703 	1.30226e-22 -0.00344588 	0.00588669 	7.05493e-23 -0.00344763 	0.00590495 	2.7216e-25 -0.00311768 	0.00606174 	-5.40943e-22 -0.00293674 	0.00637675 	-8.85573e-22 -0.00280249 	0.00674235 	-1.19007e-21 -0.00287985 	0.00699185 	-9.40395e-22 -0.00294336 	0.00719322 	-7.41816e-22 -0.00258158 	0.00750732 	-4.92478e-22 -0.00234727 	0.00778636 	-2.85591e-22 -0.00226947 	0.00795806 	-1.48874e-22 -0.00219946 	0.00815084 	-8.35465e-24 -0.00233198 	0.00846875 	-1.15246e-24 -0.00216967 	0.00870741 	-8.4919e-26 -0.00212462 	0.00881155 	0 -0.00209116 	0.00890868 	0 -0.0020593 	0.0090109 	0 -0.00201074 	0.00918273 	0 -0.00198097 	0.00929747 	0 -0.00195283 	0.00941763 	0 -0.00192627 	0.00954305 	0 -0.00190122 	0.00967356 	0 -0.00194661 	0.00963419 	0 -0.00176088 	0.00974538 	0 -0.0017011 	0.0100347 	0 -0.00164853 	0.0103515 	0 -0.00164191 	0.0105771 	0 -0.00178176 	0.0103808 	0 -0.00151236 	0.0105126 	0 -0.00132856 	0.0107805 	0 -0.00129059 	0.0112121 	0 -0.00143528 	0.0110727 	0 -0.0015986 	0.0107826 	0 -0.00131046 	0.0110203 	0 -0.00103724 	0.011367 	0 -0.00101678 	0.0115345 	0 -0.00121884 	0.0112276 	0 -0.00140413 	0.0108369 	0 -0.00110002 	0.0111939 	0 -0.000813343 	0.0116951 	0 -0.000778511 	0.011452 	0 -0.00100219 	0.0110713 	0 -0.00120718 	0.010577 	0 -0.000890105 	0.0110647 	0 -0.000660009 	0.0114363 	0 -0.0006379 	0.0110532 	0 -0.000787784 	0.0105934 	0 -0.00101004 	0.00999695 	0 -0.000683318 	0.0106243 	0 -0.000543055 	0.0106883 	0 -0.000522929 	0.0102922 	0 -0.000582382 	0.00982416 	0 -0.000819339 	0.00913349 	0 -0.000486493 	0.00990624 	0 -0.000432448 	0.00964693 	0 -0.000414386 	0.00924402 	0 -0.000396325 	0.00884111 	0 -0.000644304 	0.00807213 	0 -0.000347542 	0.00877215 	0 -0.000331537 	0.00836818 	0 -0.000315532 	0.0079642 	0 -0.000299527 	0.00756023 	0 -0.000482819 	0.00677931 	0 -0.000253137 	0.00720339 	0 -0.00023905 	0.00680252 	0 -0.000224962 	0.00640165 	0 -0.000210875 	0.00600078 	0 -0.000336434 	0.00526323 	2.62152e-37 -0.000169612 	0.00539184 	0 -0.000157132 	0.00499511 	0 -0.000144652 	0.00459838 	0 -0.000132172 	0.00420166 	0 -0.000206495 	0.00355433 	2.64399e-40 -9.68397e-05 	0.00336901 	0 -8.54293e-05 	0.00297205 	0 -7.4019e-05 	0.00257509 	0 -6.26086e-05 	0.00217813 	0 -8.9651e-05 	0.00165698 	-6.87589e-38 -4.24157e-05 	0.00155179 	0 -3.70528e-05 	0.00135559 	0 -3.169e-05 	0.00115939 	0 -2.63271e-05 	0.000963184 	0 0 	0 	0
-0.0258649 	8.44471e-05 	0 -0.0260639 	0.000194652 	0 -0.0261603 	0.000282731 	-1.21709e-24 -0.0261374 	0.000346101 	-3.7922e-24 -0.0259588 	0.000457235 	-3.13348e-23 -0.0256599 	0.000608146 	-7.95786e-23 -0.0257835 	0.000667262 	-3.92193e-22 -0.0258402 	0.000726688 	-5.88178e-22 -0.0257868 	0.00078643 	-5.99508e-22 -0.0255252 	0.000928311 	-4.15821e-22 -0.0251727 	0.00111365 	-1.32328e-22 -0.0252225 	0.00112685 	-2.57287e-22 -0.0252471 	0.00114895 	-3.52333e-22 -0.025168 	0.00120604 	-3.2882e-22 -0.0248033 	0.00139778 	-1.55342e-22 -0.0244175 	0.00161461 	4.23155e-23 -0.0244004 	0.00158941 	2.81235e-22 -0.0243801 	0.00156383 	5.20223e-22 -0.0242401 	0.00163827 	5.25792e-22 -0.0238087 	0.00187851 	3.11671e-22 -0.0234109 	0.00212391 	9.71455e-23 -0.0233369 	0.00206964 	9.70353e-23 -0.0232568 	0.00201443 	9.69978e-23 -0.0229868 	0.00211862 	8.63158e-23 -0.0225612 	0.00238288 	6.31936e-23 -0.0221717 	0.00265406 	4.01397e-23 -0.022053 	0.00258134 	1.05684e-22 -0.0219271 	0.00250726 	1.71226e-22 -0.0214734 	0.00265185 	1.80182e-22 -0.0210709 	0.00292009 	1.36049e-22 -0.0207082 	0.00321426 	8.44332e-23 -0.020558 	0.0031344 	1.76203e-22 -0.0202252 	0.00318912 	2.00677e-22 -0.0197831 	0.00334092 	1.78724e-22 -0.0193653 	0.00350096 	1.55968e-22 -0.0190438 	0.00381355 	6.0394e-23 -0.0188725 	0.00378331 	5.61204e-23 -0.0185237 	0.00390845 	8.07689e-23 -0.0181907 	0.00403994 	1.05783e-22 -0.0178745 	0.00417807 	1.31179e-22 -0.0176571 	0.00428361 	1.49944e-22 -0.0175723 	0.00433029 	1.52026e-22 -0.0174892 	0.00437767 	1.54061e-22 -0.0174078 	0.00442576 	1.56049e-22 -0.0173281 	0.00447455 	1.57989e-22 -0.0171907 	0.00456449 	1.64146e-22 -0.016753 	0.0046964 	1.49629e-22 -0.0163821 	0.00488306 	1.53847e-22 -0.0160384 	0.00508292 	1.56235e-22 -0.0156544 	0.00534486 	1.71542e-22 -0.0151399 	0.00574343 	2.1748e-22 -0.0147173 	0.00585435 	1.23694e-22 -0.0143209 	0.00598131 	2.92448e-23 -0.0138326 	0.00620911 	0 -0.0134266 	0.0065857 	3.24812e-23 -0.0130364 	0.00702628 	6.50544e-23 -0.01291 	0.00709112 	2.79034e-23 -0.0127754 	0.00716747 	0 -0.0126076 	0.00727248 	0 -0.0124464 	0.00738227 	0 -0.0123171 	0.00747831 	0 -0.012029 	0.00770421 	0 -0.011761 	0.00794685 	0 -0.0115138 	0.00820648 	0 -0.0112135 	0.00849302 	0 -0.0108813 	0.00885304 	0 -0.0105752 	0.00908624 	0 -0.0102979 	0.00934566 	0 -0.010009 	0.00961119 	0 -0.00973764 	0.00989742 	0 -0.00956632 	0.0101207 	0 -0.00936747 	0.0103615 	0 -0.00918115 	0.0106153 	0 -0.00899385 	0.0108546 	-8.1423e-24 -0.00880848 	0.0110854 	-2.24377e-23 -0.00858956 	0.0113915 	-4.04347e-23 -0.00837896 	0.011649 	-4.31955e-23 -0.00818637 	0.0119269 	-4.6399e-23 -0.00801558 	0.0122111 	-6.38447e-23 -0.00788665 	0.0124297 	-1.66282e-22 -0.00778709 	0.0126287 	-2.53794e-22 -0.00732502 	0.0131698 	-4.03167e-22 -0.00691883 	0.013758 	-5.26159e-22 -0.00663451 	0.01418 	-3.65589e-22 -0.00638115 	0.0146457 	-2.07247e-22 -0.00627578 	0.0151857 	-4.39741e-23 -0.00619679 	0.0153572 	2.22758e-23 -0.00613213 	0.0154951 	4.82928e-23 -0.00607967 	0.0156042 	3.97274e-23 -0.00602851 	0.0157152 	3.13702e-23 -0.00596968 	0.0158485 	2.17529e-23 -0.00578687 	0.0162473 	3.74645e-23 -0.00562114 	0.0166749 	5.37026e-23 -0.00547154 	0.0171295 	7.04322e-23 -0.00541019 	0.0175069 	8.69696e-23 -0.00550177 	0.0176793 	1.01568e-22 -0.00502384 	0.018215 	6.51548e-23 -0.00460243 	0.0188342 	5.08029e-23 -0.00451469 	0.0195293 	2.34448e-22 -0.00470874 	0.0198284 	4.5184e-22 -0.00488373 	0.0200931 	6.53133e-22 -0.00439404 	0.020831 	3.08672e-22 -0.00396498 	0.0215975 	0 -0.00388105 	0.0218599 	0 -0.0040271 	0.0221825 	3.32631e-25 -0.0042627 	0.0224973 	7.96228e-25 -0.00376493 	0.0234564 	9.98979e-26 -0.00362455 	0.0238545 	0 -0.00354703 	0.0241728 	0 -0.00347366 	0.0245107 	0 -0.00364521 	0.0248556 	-1.56456e-22 -0.00337004 	0.0255278 	0 -0.00331034 	0.0257995 	0 -0.0032531 	0.0260843 	0 -0.00319826 	0.0263818 	0 -0.00311162 	0.0268928 	0 -0.0031042 	0.0269428 	0 -0.00309683 	0.0269931 	0 -0.0030895 	0.0270437 	0 -0.00308223 	0.0270946 	0 -0.00309074 	0.0270803 	0 -0.00299737 	0.0274683 	0 -0.00292739 	0.027875 	0 -0.00286108 	0.028304 	0 -0.00279829 	0.0287543 	0 -0.00288543 	0.0285588 	0 -0.00264344 	0.0291095 	0 -0.00257744 	0.0295738 	0 -0.00251483 	0.0300612 	0 -0.00245548 	0.0305705 	0 -0.00267018 	0.0297655 	0 -0.00233734 	0.0305383 	0 -0.0022376 	0.0310977 	0 -0.00217847 	0.0316393 	0 -0.00221771 	0.0316964 	0 -0.00245102 	0.0307076 	0 -0.00211561 	0.0316284 	0 -0.00191276 	0.0324239 	0 -0.00185774 	0.0330149 	0 -0.00199686 	0.0325336 	0 -0.00223672 	0.031406 	0 -0.00190205 	0.0324745 	0 -0.00161317 	0.0335748 	7.02414e-38 -0.00156426 	0.0342102 	5.78055e-37 -0.00179385 	0.0331707 	1.08716e-36 -0.00203952 	0.0319066 	1.58921e-36 -0.00170828 	0.0331199 	1.02245e-36 -0.00138524 	0.0344662 	4.61862e-37 -0.00135791 	0.03491 	7.25285e-40 -0.00161851 	0.0336142 	1.5668e-39 -0.00187163 	0.0322158 	2.39646e-39 -0.00154547 	0.0335701 	1.47121e-39 -0.00122734 	0.0350671 	5.55927e-40 -0.0012104 	0.0352904 	-3.20714e-37 -0.00148389 	0.0338731 	-8.34872e-37 -0.00174974 	0.0323398 	-1.34199e-36 -0.00142889 	0.0338334 	-7.81377e-37 -0.00111609 	0.0354801 	-2.26764e-37 -0.00110949 	0.0355015 	0 -0.00140715 	0.0339606 	0 -0.00169636 	0.0322839 	0 -0.00137954 	0.0339225 	0 -0.00107123 	0.0357272 	0 -0.00106738 	0.0355355 	0 -0.00140864 	0.0338578 	0 -0.00173933 	0.032012 	0 -0.00142439 	0.033819 	0 -0.00111925 	0.0358109 	0 -0.00109459 	0.035337 	0 -0.00150982 	0.0334868 	0 -0.0019096 	0.0314134 	0 -0.00159582 	0.0334488 	0 -0.00134169 	0.0351393 	0 -0.00131344 	0.0343996 	0 -0.00171355 	0.032556 	0 -0.00221988 	0.0301356 	0 -0.00191398 	0.0325356 	0 -0.00172066 	0.0335434 	0 -0.0016638 	0.0324348 	0 -0.00196134 	0.0305401 	0 -0.00261616 	0.0275497 	0 -0.00234554 	0.0306077 	0 -0.00218107 	0.0301509 	0 -0.00205106 	0.0283537 	0 -0.00200155 	0.0263869 	0 -0.00283686 	0.0224705 	0 -0.00264973 	0.0258634 	0 -0.00233657 	0.0228068 	0 -0.00202342 	0.0197502 	0 -0.00171027 	0.0166936 	0 -0.00202286 	0.012128 	0 -0.00192802 	0.0138557 	0 -0.00152423 	0.0109539 	0 -0.00112044 	0.00805206 	0 -0.000716659 	0.00515026 	0 0 	0 	0
-0.037493 	0.000134795 	0 -0.03746 	0.000312288 	-3.52911e-23 -0.0373779 	0.000508859 	-8.0552e-23 -0.0373131 	0.000705951 	-1.26047e-22 -0.0372657 	0.000903562 	-1.71776e-22 -0.0371982 	0.00109475 	-2.18153e-22 -0.0370618 	0.00126034 	-2.78069e-22 -0.0368927 	0.00144498 	-2.94164e-22 -0.0367402 	0.00163096 	-3.08993e-22 -0.0366045 	0.0018183 	-3.2254e-22 -0.0366003 	0.00182486 	-3.22965e-22 -0.036579 	0.00186159 	-3.26586e-22 -0.0365584 	0.00189838 	-3.30183e-22 -0.0365384 	0.00193523 	-3.33757e-22 -0.0365191 	0.00197214 	-3.37308e-22 -0.0364868 	0.00201564 	-3.4309e-22 -0.0362431 	0.00219154 	-2.91693e-22 -0.0360102 	0.00236857 	-2.41041e-22 -0.0357944 	0.00254789 	-1.8991e-22 -0.0355961 	0.00272956 	-1.38292e-22 -0.0353081 	0.00296838 	-9.34579e-23 -0.0350351 	0.00313293 	-2.00298e-22 -0.0347507 	0.00330606 	-1.95762e-22 -0.0344836 	0.00348236 	-1.925e-22 -0.0342343 	0.0036619 	-1.90539e-22 -0.0337618 	0.00397531 	7.27813e-23 -0.0334515 	0.0041044 	-3.72867e-23 -0.0331353 	0.0042795 	-3.33733e-23 -0.032837 	0.00445881 	-2.97802e-23 -0.0324608 	0.00469789 	-1.91529e-25 -0.0318931 	0.00506746 	8.74748e-23 -0.0315345 	0.00518028 	4.66193e-23 -0.0311937 	0.00531128 	1.59479e-23 -0.0308848 	0.00550073 	2.43032e-23 -0.0302998 	0.00587661 	4.41925e-23 -0.0297438 	0.00627077 	6.39072e-23 -0.029364 	0.0063845 	3.44635e-23 -0.0289992 	0.00650403 	4.89921e-24 -0.0284179 	0.00677993 	0 -0.0278721 	0.00717834 	1.03891e-23 -0.027356 	0.00760423 	2.10729e-23 -0.0269824 	0.00773532 	2.86623e-24 -0.0264126 	0.00801938 	0 -0.0258346 	0.00834707 	0 -0.0252925 	0.00869364 	0 -0.0248524 	0.00901332 	0 -0.0248366 	0.00902711 	0 -0.0248209 	0.00904093 	0 -0.0248052 	0.00905477 	0 -0.0247869 	0.00907008 	0 -0.024763 	0.00908835 	0 -0.0241806 	0.00942921 	0 -0.0236423 	0.00979966 	0 -0.0231422 	0.0101944 	0 -0.0225899 	0.0106577 	0 -0.0219045 	0.0112578 	0 -0.0213489 	0.0116046 	0 -0.0208145 	0.0119903 	0 -0.020167 	0.0124669 	0 -0.0195767 	0.012985 	0 -0.019021 	0.0135718 	0 -0.0190095 	0.013587 	0 -0.0189981 	0.0136023 	0 -0.0189863 	0.0136176 	0 -0.018971 	0.0136331 	0 -0.0189557 	0.0136488 	0 -0.0182765 	0.0141914 	0 -0.0176692 	0.0147976 	0 -0.0171034 	0.0154523 	2.18746e-24 -0.0164886 	0.016121 	1.69975e-23 -0.0157616 	0.0170829 	3.66476e-23 -0.015695 	0.0171734 	3.67389e-23 -0.0156295 	0.017265 	3.68409e-23 -0.0155619 	0.017351 	3.49006e-23 -0.0154904 	0.0174277 	2.98793e-23 -0.015423 	0.0175023 	2.50809e-23 -0.0147254 	0.018248 	7.90253e-23 -0.0140996 	0.0190756 	1.37105e-22 -0.0135224 	0.0198404 	2.495e-23 -0.0130649 	0.0206363 	-2.28985e-22 -0.0127863 	0.0212752 	-4.24187e-22 -0.0126786 	0.0214965 	-5.4028e-22 -0.0125738 	0.0217141 	-6.3037e-22 -0.0124706 	0.0218834 	-5.28829e-22 -0.0123699 	0.0220556 	-4.2816e-22 -0.0122583 	0.0222546 	-3.1467e-22 -0.0119118 	0.0228365 	-1.1398e-22 -0.0115956 	0.0234563 	8.27948e-23 -0.0113086 	0.0241119 	2.75737e-22 -0.0111212 	0.0245865 	2.27387e-22 -0.0109913 	0.0249683 	1.1245e-22 -0.0104419 	0.0258723 	8.39839e-23 -0.00993735 	0.026846 	5.48193e-23 -0.00960582 	0.0274827 	3.70726e-22 -0.00946315 	0.0281422 	1.12037e-21 -0.00939198 	0.0287711 	1.9048e-21 -0.00905114 	0.0295997 	2.63076e-21 -0.00882375 	0.0301641 	2.33725e-21 -0.00863721 	0.0306623 	1.74687e-21 -0.00846116 	0.0311801 	1.1695e-21 -0.00820959 	0.0319934 	3.13297e-22 -0.00816278 	0.0321639 	2.35227e-22 -0.00811684 	0.0323361 	1.5728e-22 -0.00807176 	0.03251 	7.94552e-23 -0.00802849 	0.0326838 	2.66334e-24 -0.0080667 	0.0327129 	2.76208e-24 -0.00770223 	0.0334959 	-1.27519e-22 -0.00748108 	0.0343312 	-3.40573e-22 -0.00727817 	0.0352054 	-5.57495e-22 -0.00715985 	0.0359806 	-7.77878e-22 -0.0073771 	0.0361164 	-9.93797e-22 -0.00680295 	0.0370971 	-6.62984e-22 -0.00635429 	0.0381363 	-5.95525e-23 -0.00618976 	0.0391822 	1.25969e-21 -0.00644286 	0.0393747 	2.28199e-21 -0.00669989 	0.0394984 	3.25675e-21 -0.00611704 	0.0406807 	1.86745e-21 -0.00555757 	0.0419514 	4.96927e-22 -0.00543492 	0.0425711 	8.3203e-25 -0.00574139 	0.0427086 	3.29354e-24 -0.00603248 	0.042809 	5.6856e-24 -0.00544408 	0.0441944 	2.48579e-24 -0.00497803 	0.045416 	0 -0.00489314 	0.0457675 	0 -0.00506481 	0.0459594 	-3.08607e-21 -0.00538304 	0.0460228 	-7.97564e-21 -0.00479275 	0.0476079 	-1.7737e-21 -0.00456588 	0.0483363 	0 -0.00448429 	0.0487194 	0 -0.00442264 	0.0491028 	-3.96228e-25 -0.00476159 	0.0491141 	-9.74255e-24 -0.00424393 	0.0506812 	0 -0.00416442 	0.0510736 	0 -0.00408704 	0.0514838 	0 -0.00401174 	0.0519114 	0 -0.00417946 	0.0520533 	2.27991e-21 -0.00385775 	0.0531819 	2.96738e-37 -0.00378496 	0.0535974 	8.68427e-37 -0.00371403 	0.0540302 	1.43917e-36 -0.00364491 	0.0544798 	2.00899e-36 -0.00365318 	0.054828 	2.66355e-36 -0.00354469 	0.0552937 	2.89108e-36 -0.00351384 	0.0555046 	2.5112e-36 -0.00348338 	0.0557193 	2.13277e-36 -0.00345329 	0.0559379 	1.75578e-36 -0.00341644 	0.0562135 	1.29022e-36 -0.00338758 	0.0564364 	1.01737e-36 -0.00335907 	0.0566629 	7.44698e-37 -0.0033309 	0.0568929 	4.72209e-37 -0.00330308 	0.0571264 	1.99898e-37 -0.00331683 	0.0570914 	4.2469e-39 -0.00322781 	0.0576662 	-4.21378e-37 -0.00318344 	0.058124 	-9.24429e-37 -0.00314025 	0.0585949 	-1.42815e-36 -0.00309821 	0.0590784 	-1.93253e-36 -0.00317715 	0.058722 	-2.43675e-36 -0.00302525 	0.0596324 	-1.87614e-36 -0.00301069 	0.0601204 	-1.31722e-36 -0.00299678 	0.0606159 	-7.5864e-37 -0.00298353 	0.061119 	-2.00376e-37 -0.00316115 	0.0601606 	0 -0.00294523 	0.0614613 	0 -0.00297978 	0.0619987 	0 -0.00301417 	0.0625343 	0 -0.00304841 	0.0630681 	0 -0.00333765 	0.0614288 	0 -0.00303572 	0.0631965 	0 -0.00315012 	0.0638202 	0 -0.00326283 	0.0644258 	0 -0.00340628 	0.0646997 	0 -0.00379928 	0.0624993 	0 -0.0034855 	0.0645346 	0 -0.00359043 	0.0656195 	0 -0.00382828 	0.0663485 	0 -0.00416271 	0.065823 	0 -0.00465612 	0.0632085 	0 -0.00435022 	0.0656084 	0 -0.0043641 	0.067453 	0 -0.00479828 	0.0683988 	0 -0.00537514 	0.0665131 	0 -0.00600029 	0.0631867 	0 -0.00572968 	0.0662447 	0 -0.00547664 	0.0694695 	0 -0.00621749 	0.0704037 	0 -0.00702226 	0.0661827 	0 -0.00777375 	0.0615753 	0 -0.0076126 	0.0659075 	0 -0.0074819 	0.0704881 	0 -0.00777288 	0.0695175 	0 -0.00863678 	0.0631992 	0 -0.00938582 	0.0562724 	0 -0.00949413 	0.0631697 	0 -0.00951675 	0.068392 	0 -0.00878376 	0.0631244 	0 -0.00881415 	0.0546171 	0 -0.00913759 	0.0436727 	0 -0.00978024 	0.0559924 	0 -0.00859175 	0.0502198 	0 -0.0070966 	0.0414804 	0 -0.00560145 	0.0327411 	0 -0.00424971 	0.0185358 	0 -0.00464949 	0.0274246 	0 -0.00378006 	0.0222963 	0 -0.00291063 	0.0171681 	0 -0.00204121 	0.0120399 	0 0 	0 	0