# vtk DataFile Version 2.0
track0
ASCII
DATASET POLYDATA
POINTS 41156 float
0.05 8.57988e-20 2.57396e-18
0.05 0.00217391 -1.05592e-17
0.05 0.00217391 -1.05592e-17
0.05 0.00217391 -1.05592e-17
0.05 0.00217391 -1.05592e-17
0.05 0.00217391 -1.05592e-17
0.05 0.00217391 -1.38778e-17
0.0493333 0.00217503 -9.4369e-18
0.0486667 0.00217719 -8.88179e-18
0.048 0.00218094 -9.58658e-18
0.0473334 0.00218785 -1.47457e-17
0.0466667 0.00219734 -1.94289e-17
0.046 0.00220924 -1.29063e-17
0.0453333 0.00222059 -1.51268e-17
0.0446667 0.00223257 -1.50517e-17
0.0440001 0.00224757 -1.97226e-17
0.0433333 0.00226605 -2.498e-17
0.0426667 0.00228837 -1.56819e-17
0.0419999 0.00230874 -1.26986e-17
0.0413332 0.00232937 -1.29486e-17
0.0406666 0.00235296 -1.84901e-17
0.04 0.00238054 -2.63678e-17
0.0393333 0.00241326 -2.1233e-17
0.0386665 0.00244285 -2.27593e-17
0.0379997 0.00247319 -2.0723e-17
0.0373331 0.00250654 -1.25554e-17
0.0366667 0.00254376 -1.11022e-17
0.036 0.00258733 -1.22125e-17
0.0353331 0.00262682 -1.54712e-17
0.0346663 0.00266861 -1.76091e-17
0.0339997 0.00271359 -2.27358e-17
0.0333333 0.00276189 -2.498e-17
0.0326667 0.00281733 -2.73392e-17
0.0319998 0.00286969 -2.48408e-17
0.0313331 0.00292548 -3.66231e-17
0.0306668 0.00298483 -3.0348e-17
0.03 0.00304797 -3.19189e-17
0.0294499 0.00310504 -2.82273e-17
0.0288998 0.00316182 -3.77194e-17
0.0283499 0.00322128 -3.36596e-17
0.0278004 0.00328351 -3.84406e-17
0.0273799 0.00333333 -3.98516e-17
0.0272373 0.00335083 -3.88202e-17
0.0270947 0.00336854 -4.61154e-17
0.026952 0.00338645 -4.23083e-17
0.0268095 0.00340457 -4.68277e-17
0.0266667 0.00342293 -3.8634e-17
0.026 0.00351157 -4.53515e-17
0.0253338 0.00360343 -4.65098e-17
0.0246682 0.0037001 -4.45503e-17
0.0240034 0.00380179 -4.06676e-17
0.0233333 0.00390967 -3.28787e-17
0.0226667 0.00403604 -4.14158e-17
0.0219994 0.00415918 -4.0927e-17
0.0213331 0.00428763 -4.14231e-17
0.0206681 0.0044222 -3.71334e-17
0.02 0.004574 -2.73154e-17
0.0193333 0.00475307 -2.75434e-17
0.0186665 0.00493151 -3.26223e-17
0.0179995 0.00510926 -3.26868e-17
0.0173359 0.00529963 -3.70685e-17
0.0166667 0.00552116 -2.498e-17
0.0160624 0.00575026 -2.48583e-17
0.0154589 0.00598158 -2.27928e-17
0.0148597 0.00622366 -2.62986e-17
0.0142675 0.00648234 -2.89348e-17
0.0138776 0.00666667 -4.11519e-17
0.0137687 0.00672091 -4.23584e-17
0.0136602 0.00677591 -4.49533e-17
0.0135522 0.00683166 -4.47734e-17
0.0134445 0.00688819 -3.89342e-17
0.0133333 0.00694785 -4.21016e-17
0.0126667 0.00731488 -3.71617e-17
0.0120123 0.00770346 -3.50333e-17
0.0113733 0.00811666 -3.74883e-17
0.0107514 0.00855538 -3.2752e-17
0.01 0.00914583 -3.60822e-17
0.00980939 0.00931666 -4.39328e-17
0.00962043 0.00948931 -3.92974e-17
0.00943314 0.00966377 -4.16616e-17
0.00924757 0.00984006 -4.00435e-17
0.00908254 0.01 -4.44089e-17
0.00859936 0.0104767 -3.62793e-17
0.00813929 0.0109757 -4.36793e-17
0.00770381 0.0114963 -5.02363e-17
0.00729196 0.0120358 -4.60644e-17
0.00666667 0.0129266 -4.30211e-17
0.00661664 0.013008 -4.44922e-17
0.00656693 0.0130895 -3.90239e-17
0.00651751 0.0131712 -4.0494e-17
0.0064684 0.0132531 -3.85276e-17
0.00642043 0.0133333 -3.05311e-17
0.00602288 0.014 -2.1233e-17
0.00566169 0.0146871 -3.001e-17
0.00533118 0.0153894 -2.93569e-17
0.00502742 0.0161037 -2.927e-17
0.0047905 0.0166667 -2.35951e-17
0.00451207 0.0173333 -2.09947e-17
0.00427315 0.0180152 -2.33251e-17
0.00406028 0.0187056 -2.90463e-17
0.00385826 0.0193992 -2.45281e-17
0.00369294 0.02 -3.13488e-17
0.00362102 0.0202584 -2.78546e-17
0.00355479 0.0205183 -3.07306e-17
0.0034904 0.0207787 -3.15776e-17
0.00342746 0.0210394 -2.75691e-17
0.00333333 0.0214389 -3.95312e-17
0.00324729 0.0218178 -4.17767e-17
0.00316389 0.0221973 -4.60789e-17
0.00308304 0.0225773 -4.62135e-17
0.00300465 0.0229578 -3.52418e-17
0.00292972 0.0233333 -3.747e-17
0.00279222 0.024 -4.13558e-17
0.00267021 0.0246697 -3.51852e-17
0.00255593 0.0253407 -3.6222e-17
0.00244876 0.0260129 -3.48225e-17
0.00234589 0.0266667 -3.747e-17
0.00222981 0.0273333 -3.85803e-17
0.00213261 0.028003 -3.69074e-17
0.00205104 0.0286748 -3.12788e-17
0.00197519 0.0293472 -3.34735e-17
0.00189026 0.03 -3.747e-17
0.00179081 0.0306667 -3.30291e-17
0.00171144 0.031336 -3.34499e-17
0.00165112 0.0320074 -3.55408e-17
0.0015929 0.0326789 -3.52133e-17
0.00152251 0.0333333 -3.46418e-17
0.00143647 0.034 -2.63228e-17
0.00137191 0.0346691 -2.58512e-17
0.00132711 0.0353398 -2.64413e-17
0.00128323 0.0360105 -2.46296e-17
0.00122531 0.0366667 -1.73061e-17
0.00115047 0.0373333 -1.54468e-17
0.00109865 0.0380022 -7.75873e-18
0.00106081 0.038672 -1.34009e-17
0.00102298 0.0393418 -1.88215e-17
0.000976213 0.04 -1.20341e-17
0.00091093 0.0406667 -9.84368e-18
0.000870579 0.0413353 -9.63442e-18
0.000837896 0.0420044 -1.40932e-17
0.000805214 0.0426734 -1.24215e-17
0.000768758 0.0433333 -1.5158e-17
0.000711807 0.044 -1.50632e-17
0.000682051 0.0446684 -1.07086e-17
0.000653846 0.0453369 -1.13164e-17
0.000625642 0.0460054 -1.06949e-17
0.000597743 0.0466667 -3.771e-18
0.000548115 0.0473333 -1.01242e-17
0.000523825 0.0480014 -8.36401e-18
0.000499534 0.0486695 -7.49868e-18
0.000475244 0.0493375 -1.48562e-17
0.000451158 0.05 -3.52689e-18
0.000407946 0.0506667 -3.21206e-18
0.000387042 0.0513344 -5.03992e-19
0.000366138 0.0520021 4.29854e-18
0.000345235 0.0526699 3.88043e-18
0.000324466 0.0533333 1.33374e-17
0.000286761 0.054 1.58982e-17
0.000268682 0.0546675 7.32548e-18
0.000250603 0.055335 1.19322e-17
0.000232525 0.0560025 3.18779e-18
0.000214535 0.0566667 1.90716e-17
0.000181318 0.0573333 2.09311e-17
0.00016539 0.0580006 1.99872e-17
0.000149462 0.0586679 1.99125e-17
0.000133533 0.0593352 1.70665e-17
0.000117666 0.06 1.22941e-17
9.41327e-05 0.0605231 2.25719e-17
8.26191e-05 0.0610467 1.40955e-17
7.11055e-05 0.0615702 1.91499e-17
5.95918e-05 0.0620937 1.97585e-17
3.23308e-05 0.0633333 2.07628e-17
2.58647e-05 0.0634849 1.85974e-17
2.25243e-05 0.0636366 2.05903e-17
1.91839e-05 0.0637883 2.18893e-17
1.58435e-05 0.0639399 2.04127e-17
0 0.0646593 2.30249e-17
0.05 0.00434783 5.94331e-18
0.0493333 0.00434873 3.86013e-18
0.0486667 0.00435271 1.07795e-18
0.048 0.00435908 2.98366e-18
0.0473334 0.00436712 6.50928e-18
0.0466667 0.00437807 5.89295e-18
0.046 0.00439303 6.56193e-18
0.0453334 0.00440966 9.30979e-18
0.0446668 0.00442793 5.06621e-18
0.0440003 0.00444782 6.55767e-19
0.0433333 0.00447162 -2.13193e-18
0.0426667 0.00450064 8.36899e-19
0.042 0.0045301 3.4618e-18
0.0413334 0.00456028 4.71833e-18
0.0406669 0.00459209 -1.71859e-18
0.04 0.0046295 -1.1873e-17
0.0393333 0.00467342 -1.43748e-17
0.0386666 0.00471679 -1.4447e-17
0.0379999 0.00475962 -1.2335e-17
0.0373333 0.00480473 -1.18437e-17
0.0366667 0.00485742 -4.12644e-18
0.036 0.004918 -5.94608e-18
0.0353332 0.00497731 -1.27837e-17
0.0346663 0.00503533 -1.52471e-17
0.0339998 0.00509704 -1.90427e-17
0.0333333 0.00516775 -1.80411e-17
0.0326667 0.00524788 -2.47025e-17
0.0319998 0.00532633 -2.37305e-17
0.0313327 0.00540303 -2.59332e-17
0.0306664 0.00548576 -3.1687e-17
0.03 0.00557863 -3.88578e-17
0.0293333 0.00568264 -3.23352e-17
0.0286664 0.0057849 -3.73308e-17
0.028 0.00589054 -3.7236e-17
0.0273348 0.00600349 -3.99446e-17
0.0266667 0.00612494 -3.60822e-17
0.0261284 0.00623328 -3.79614e-17
0.0255902 0.00634174 -3.63712e-17
0.025053 0.00645563 -3.89895e-17
0.0245172 0.00657522 -3.84264e-17
0.0241277 0.00666667 -4.08747e-17
0.0239689 0.00670539 -3.85284e-17
0.0238101 0.00674468 -4.10396e-17
0.0236515 0.00678456 -4.3551e-17
0.0234931 0.00682502 -3.91238e-17
0.0233333 0.00686645 -3.50272e-17
0.0226667 0.00704425 -3.39355e-17
0.0220025 0.00723119 -4.39613e-17
0.0213415 0.00742895 -3.93232e-17
0.020684 0.00763801 -4.46242e-17
0.02 0.00787223 -5.11119e-17
0.0193333 0.00812576 -4.92643e-17
0.0186708 0.0083898 -5.07859e-17
0.0180127 0.00866497 -5.04512e-17
0.0173621 0.00895723 -5.0999e-17
0.0166667 0.00929825 -5.55112e-17
0.0164059 0.0094386 -5.03943e-17
0.0161462 0.00958095 -4.77055e-17
0.0158877 0.00972557 -4.86628e-17
0.015631 0.00987317 -4.9623e-17
0.0154163 0.01 -4.30211e-17
0.0149997 0.0102518 -4.00584e-17
0.0145892 0.0105133 -3.99083e-17
0.0141851 0.0107847 -4.44396e-17
0.0137878 0.011066 -3.92272e-17
0.0133333 0.0114079 -4.01615e-17
0.0128564 0.011793 -4.52032e-17
0.0123897 0.0121905 -5.15315e-17
0.0119339 0.0126003 -5.17928e-17
0.0114896 0.0130227 -4.93845e-17
0.0111808 0.0133333 -4.75339e-17
0.0109446 0.0135806 -4.89906e-17
0.0107138 0.0138328 -4.66844e-17
0.0104885 0.0140899 -4.32685e-17
0.0102684 0.0143516 -4.38541e-17
0.01 0.0146842 -4.50696e-17
0.00969582 0.0150807 -5.32422e-17
0.00940087 0.0154841 -5.51211e-17
0.00911512 0.0158941 -4.84864e-17
0.00883808 0.01631 -5.56578e-17
0.00860871 0.0166667 -4.71845e-17
0.0082203 0.0172887 -4.53852e-17
0.00785949 0.0179271 -4.79606e-17
0.00752506 0.0185798 -5.15996e-17
0.00720911 0.0192415 -4.63036e-17
0.00687147 0.02 -4.66729e-17
0.00683051 0.0200985 -4.8163e-17
0.00679017 0.0201973 -4.70616e-17
0.00675033 0.0202963 -4.64835e-17
0.00671089 0.0203954 -4.34772e-17
0.00666667 0.0205079 -3.62014e-17
0.00644743 0.021073 -3.89531e-17
0.00623981 0.0216424 -3.68801e-17
0.00604314 0.0222158 -3.29573e-17
0.00585677 0.0227925 -3.40396e-17
0.00568807 0.0233333 -3.05311e-17
0.00547871 0.024 -2.47025e-17
0.00529184 0.0246733 -2.16604e-17
0.00512633 0.0253522 -2.22414e-17
0.0049687 0.0260329 -1.6373e-17
0.00481811 0.0266667 -1.8669e-17
0.0046561 0.0273333 -1.43899e-17
0.00451509 0.0280048 -1.46583e-17
0.0043907 0.0286795 -1.06378e-17
0.00427051 0.0293549 -1.20036e-17
0.0041548 0.03 -2.07969e-17
0.00403006 0.0306667 -1.22625e-17
0.00392451 0.0313366 -1.33302e-17
0.00382328 0.0320073 -1.72206e-17
0.00372567 0.0326785 -2.11139e-17
0.00363393 0.0333333 -2.82562e-17
0.00357381 0.0337547 -2.06889e-17
0.00351864 0.0341767 -2.52718e-17
0.00346482 0.034599 -2.30913e-17
0.00341231 0.0350213 -1.86838e-17
0.00333333 0.0356727 -1.94289e-17
0.00331015 0.0358715 -1.6692e-17
0.00328722 0.0360703 -1.81179e-17
0.00326455 0.0362692 -1.39923e-17
0.00324214 0.0364681 -1.26419e-17
0.00322001 0.0366667 -1.249e-17
0.00314517 0.0373333 -1.08247e-17
0.00307449 0.0380005 -1.22826e-17
[...]
POINT_DATA 41156
 FIELD attributes 1
U 3 41156 float
-6.44814e-19 	-1.6999e-21 	0
-0.0152282 	2.54117e-05 	0 -0.0152282 	2.54117e-05 	0 -0.0152282 	2.54117e-05 	0 -0.0152282 	2.54117e-05 	0 -0.0152282 	2.54117e-05 	0 -0.0152282 	2.54117e-05 	0 -0.0155617 	5.05387e-05 	0 -0.0157991 	8.87849e-05 	-3.93994e-25 -0.0157593 	0.000163533 	-1.8847e-24 -0.015506 	0.000220515 	-3.3824e-24 -0.0151819 	0.000271003 	-4.88598e-24 -0.0155065 	0.000264183 	1.91396e-22 -0.0156891 	0.000281906 	3.22622e-22 -0.0155888 	0.000350802 	3.18759e-22 -0.015355 	0.000425611 	1.90607e-22 -0.0150597 	0.000504098 	-6.06979e-24 -0.0153617 	0.000469261 	3.54466e-23 -0.0154528 	0.000478237 	5.65252e-23 -0.015303 	0.00054152 	5.25369e-23 -0.0150987 	0.000624609 	2.87767e-23 -0.0148433 	0.000728571 	-1.55412e-23 -0.0151118 	0.000670597 	-1.14025e-23 -0.0150818 	0.000686337 	-2.83718e-23 -0.0148965 	0.000745155 	-5.74673e-23 -0.0147126 	0.000821743 	-8.77665e-23 -0.0145051 	0.000947974 	-1.21329e-22 -0.0147323 	0.000872371 	-9.16092e-23 -0.0145618 	0.000912491 	-8.67675e-23 -0.0143557 	0.000968724 	-8.53014e-23 -0.014166 	0.00102674 	-8.41174e-23 -0.0140117 	0.00116532 	-1.10482e-22 -0.0141099 	0.00110782 	-1.93471e-22 -0.0138816 	0.00116165 	-1.55375e-22 -0.0136691 	0.00121759 	-1.16698e-22 -0.0134728 	0.00127574 	-7.74189e-23 -0.0133366 	0.00138366 	1.08319e-23 -0.0132897 	0.00137168 	-4.68301e-23 -0.0131044 	0.001417 	-3.33493e-23 -0.0129298 	0.00146406 	-1.91911e-23 -0.0127661 	0.00151293 	-4.33138e-24 -0.0126496 	0.00155178 	7.59943e-24 -0.0126129 	0.00156566 	1.18763e-23 -0.0125769 	0.00157967 	1.6206e-23 -0.0125418 	0.00159382 	2.05889e-23 -0.0125076 	0.00160811 	2.50254e-23 -0.0124369 	0.0016537 	9.21668e-24 -0.0121981 	0.0016818 	6.83786e-24 -0.0119945 	0.00174227 	7.75698e-24 -0.011807 	0.00180604 	8.64528e-24 -0.0116363 	0.00187324 	9.50139e-24 -0.0112786 	0.00213796 	5.15008e-23 -0.0109277 	0.00201664 	3.81324e-22 -0.0107389 	0.00207028 	4.6809e-22 -0.0105766 	0.00214016 	5.40492e-22 -0.0103129 	0.00234333 	4.39904e-22 -0.00997915 	0.00268046 	1.81489e-22 -0.0096716 	0.00258802 	4.47822e-22 -0.00936243 	0.0024949 	7.14137e-22 -0.00904927 	0.00259634 	7.28294e-22 -0.00878193 	0.00290677 	4.94203e-22 -0.00856171 	0.00324597 	2.6129e-22 -0.00833784 	0.00319622 	4.65436e-22 -0.00805573 	0.00325448 	5.01163e-22 -0.00775759 	0.00338845 	4.34129e-22 -0.00749313 	0.00354195 	3.63729e-22 -0.00734076 	0.00365823 	3.14387e-22 -0.00729304 	0.00369799 	3.00429e-22 -0.00724678 	0.00373871 	2.86324e-22 -0.00720201 	0.00378041 	2.72074e-22 -0.00714375 	0.00383404 	2.70452e-22 -0.00707768 	0.00389658 	2.75093e-22 -0.00667318 	0.00396298 	1.82621e-22 -0.0064061 	0.00414192 	9.86435e-23 -0.00616879 	0.0043521 	1.92359e-23 -0.00589923 	0.00463557 	2.6142e-23 -0.00562116 	0.00503809 	3.2212e-23 -0.00555943 	0.00507954 	1.85816e-23 -0.00550084 	0.00512391 	4.94471e-24 -0.00544446 	0.00517225 	3.0327e-23 -0.00539078 	0.00522419 	7.79099e-23 -0.00534551 	0.00527353 	1.20642e-22 -0.00503827 	0.00546457 	1.21498e-22 -0.00476401 	0.00569516 	1.16379e-22 -0.00452975 	0.00593373 	1.0524e-22 -0.00433383 	0.00617444 	8.85647e-23 -0.00406637 	0.00661237 	5.38197e-23 -0.00404956 	0.00664054 	8.91709e-23 -0.00403314 	0.00666922 	1.24218e-22 -0.0040171 	0.00669841 	1.58961e-22 -0.00401738 	0.00671995 	8.47766e-23 -0.0040195 	0.00674035 	4.01864e-25 -0.00363284 	0.00691034 	-6.80981e-22 -0.0034204 	0.00726842 	-1.12586e-21 -0.00326794 	0.00768443 	-1.50686e-21 -0.0033584 	0.00798079 	-1.19428e-21 -0.00343256 	0.00821877 	-9.47543e-22 -0.00300614 	0.00857874 	-6.22829e-22 -0.0027411 	0.00889023 	-3.65548e-22 -0.00264805 	0.00909246 	-1.98509e-22 -0.00256469 	0.00932041 	-2.65347e-23 -0.00269439 	0.00968036 	1.7967e-23 -0.00252888 	0.00992361 	1.46329e-24 -0.00248053 	0.0100309 	0 -0.00244494 	0.0101291 	0 -0.00241088 	0.0102321 	0 -0.00236105 	0.0103968 	0 -0.0023182 	0.0105478 	0 -0.00227809 	0.0107079 	0 -0.00224063 	0.0108766 	0 -0.0022057 	0.0110537 	0 -0.00226897 	0.0110011 	0 -0.00202167 	0.0110967 	0 -0.00194874 	0.0114427 	0 -0.00188493 	0.011823 	0 -0.00189506 	0.0120423 	0 -0.00205763 	0.011818 	0 -0.00173727 	0.0119686 	0 -0.00148874 	0.0122613 	0 -0.00144182 	0.0127817 	0 -0.00163355 	0.0125556 	0 -0.00182246 	0.0122172 	0 -0.00148211 	0.0124983 	0 -0.00116012 	0.0129129 	0 -0.00112815 	0.0130111 	0 -0.0013607 	0.0126511 	0 -0.00157324 	0.012191 	0 -0.00121763 	0.0126184 	0 -0.000883236 	0.0132217 	0 -0.0008405 	0.0128484 	0 -0.00109438 	0.0123989 	0 -0.00132648 	0.0118147 	0 -0.000960702 	0.0124002 	0 -0.000720096 	0.0127476 	0 -0.000695297 	0.0123086 	0 -0.000836389 	0.0117729 	0 -0.00108385 	0.0110683 	0 -0.000713272 	0.0118194 	0 -0.000577293 	0.011818 	0 -0.000555621 	0.0113744 	0 -0.000599737 	0.0108562 	0 -0.000857845 	0.0100419 	0 -0.000487954 	0.0109611 	0 -0.00044768 	0.0106108 	0 -0.000429168 	0.010172 	0 -0.000410655 	0.00973325 	0 -0.000657855 	0.00883705 	0 -0.000348988 	0.00959843 	0 -0.000333522 	0.00917307 	0 -0.000318056 	0.00874771 	0 -0.000302591 	0.00832234 	0 -0.000481734 	0.00743203 	0 -0.000247824 	0.00791642 	0 -0.000235125 	0.00751077 	0 -0.000222426 	0.00710513 	0 -0.000209728 	0.00669948 	0 -0.000332284 	0.00587518 	2.90354e-37 -0.000164789 	0.00608421 	0 -0.0001544 	0.00570064 	0 -0.000144011 	0.00531706 	0 -0.000133622 	0.00493349 	0 -0.000210301 	0.00422079 	2.92923e-40 -9.92947e-05 	0.00415987 	0 -9.05719e-05 	0.00379444 	0 -8.18492e-05 	0.003429 	0 -7.31264e-05 	0.00306357 	0 -0.000112103 	0.00249202 	-1.05135e-37 -5.09376e-05 	0.00231619 	0 -4.47073e-05 	0.00203289 	0 -3.8477e-05 	0.00174959 	0 -3.22466e-05 	0.00146629 	0 -3.12414e-05 	0.000732334 	0 -1.49656e-05 	0.000679533 	0 -1.30328e-05 	0.000591772 	0 -1.11e-05 	0.000504011 	0 -9.16721e-06 	0.00041625 	0 0 	0 	0
-0.0296173 	4.0339e-05 	0 -0.0298387 	0.000178028 	0 -0.0299474 	0.00028593 	-6.98083e-25 -0.0299255 	0.000360968 	-2.16626e-24 -0.0297384 	0.000488371 	-1.78543e-23 -0.0294212 	0.000660259 	-4.5576e-23 -0.0295531 	0.00073715 	-2.2549e-22 -0.0296119 	0.000811643 	-3.36432e-22 -0.0295539 	0.000882273 	-3.4231e-22 -0.0292743 	0.00104457 	-2.31808e-22 -0.0288935 	0.00125745 	-5.90025e-23 -0.0289372 	0.00127907 	-6.95974e-23 -0.0289538 	0.00131057 	-7.88289e-23 -0.0288654 	0.00137783 	-8.30283e-23 -0.028471 	0.00159728 	-5.61209e-23 -0.0280507 	0.00184767 	-2.35945e-23 -0.0280142 	0.00182252 	-4.6401e-23 -0.0279747 	0.00179702 	-6.92079e-23 -0.0278203 	0.00188286 	-9.21666e-23 -0.0273464 	0.00216119 	-8.95667e-23 -0.0269117 	0.00244552 	-8.66072e-23 -0.0268074 	0.00238452 	-2.73786e-22 -0.0266965 	0.0023225 	-4.61057e-22 -0.0263918 	0.0024436 	-4.45616e-22 -0.0259245 	0.00275036 	-2.27756e-22 -0.0254994 	0.0030652 	-9.3313e-24 -0.0253426 	0.002981 	1.52501e-22 -0.0251777 	0.00289522 	3.14266e-22 -0.0246603 	0.00306155 	3.27419e-22 -0.0242177 	0.00337504 	2.40061e-22 -0.0238238 	0.00371695 	1.40076e-22 -0.0236308 	0.0036231 	2.78602e-22 -0.0232427 	0.00368443 	3.1467e-22 -0.0227361 	0.0038605 	2.78248e-22 -0.0222581 	0.00404622 	2.4062e-22 -0.0219121 	0.00441059 	9.28548e-23 -0.0217036 	0.0043732 	8.49583e-23 -0.0213047 	0.00451766 	1.15769e-22 -0.0209246 	0.00466951 	1.47096e-22 -0.020564 	0.00482908 	1.78961e-22 -0.0203164 	0.0049512 	2.02581e-22 -0.02022 	0.00500527 	2.04433e-22 -0.0201255 	0.00506015 	2.06222e-22 -0.0200331 	0.00511585 	2.07946e-22 -0.0199428 	0.00517239 	2.09604e-22 -0.0197879 	0.00527744 	2.17781e-22 -0.0192837 	0.0054278 	1.97494e-22 -0.018862 	0.00564287 	2.01739e-22 -0.0184721 	0.00587322 	2.03597e-22 -0.0180384 	0.00617726 	2.2292e-22 -0.0174635 	0.00664119 	2.82665e-22 -0.0169742 	0.00676443 	1.60421e-22 -0.0165154 	0.00690615 	3.73243e-23 -0.0159567 	0.00716793 	0 -0.0155048 	0.00760296 	4.02078e-23 -0.0150756 	0.00811322 	8.12382e-23 -0.0149314 	0.00818443 	3.48e-23 -0.0147785 	0.00826923 	0 -0.0145905 	0.00838794 	0 -0.0144101 	0.00851204 	0 -0.0142647 	0.00862113 	0 -0.0139372 	0.00887982 	0 -0.0136333 	0.00915781 	0 -0.0133537 	0.00945541 	0 -0.0130129 	0.00978716 	0 -0.0126373 	0.0102033 	0 -0.012286 	0.0104661 	0 -0.0119683 	0.0107593 	0 -0.0116362 	0.0110633 	0 -0.0113255 	0.0113931 	0 -0.0111297 	0.0116515 	0 -0.010908 	0.0119215 	0 -0.0107003 	0.0122059 	0 -0.0104898 	0.0124757 	-1.84612e-23 -0.0102795 	0.0127363 	-5.16308e-23 -0.0100334 	0.0130785 	-9.3014e-23 -0.00978135 	0.0133785 	-9.93706e-23 -0.00955175 	0.013704 	-1.06839e-22 -0.00934938 	0.0140362 	-1.37836e-22 -0.00919433 	0.0142979 	-2.85909e-22 -0.00907616 	0.0145352 	-4.11819e-22 -0.00855699 	0.0151411 	-6.36443e-22 -0.00809817 	0.0158031 	-8.26249e-22 -0.00777119 	0.0162776 	-5.30045e-22 -0.00747934 	0.0168014 	-2.38917e-22 -0.00727785 	0.0175034 	1.45714e-22 -0.00721027 	0.017652 	2.43418e-22 -0.00715386 	0.0177716 	2.72614e-22 -0.00710719 	0.0178655 	2.41407e-22 -0.0070614 	0.0179608 	2.10538e-22 -0.0070105 	0.0180702 	1.75946e-22 -0.00676863 	0.0185642 	1.60443e-22 -0.00655136 	0.0190996 	1.46395e-22 -0.00635723 	0.0196735 	1.33719e-22 -0.00628412 	0.0201449 	1.35768e-22 -0.00639644 	0.0203689 	1.6125e-22 -0.00582949 	0.0210033 	1.01261e-22 -0.00529667 	0.0217259 	4.23559e-23 -0.00520632 	0.0224849 	1.69876e-22 -0.00542909 	0.022846 	3.55586e-22 -0.00562944 	0.0231656 	5.27095e-22 -0.00504979 	0.0240449 	2.32916e-22 -0.00458667 	0.0248791 	0 -0.0044826 	0.0251905 	0 -0.00458458 	0.0255589 	2.90458e-25 -0.00485267 	0.025935 	8.16882e-25 -0.00426586 	0.027078 	2.98901e-26 -0.00414512 	0.0274598 	0 -0.00404787 	0.0278357 	0 -0.00395581 	0.028236 	0 -0.00408593 	0.028638 	-1.21438e-22 -0.00382672 	0.0292772 	0 -0.00376456 	0.0295319 	0 -0.00370442 	0.0297975 	0 -0.00364627 	0.0300737 	0 -0.0035596 	0.0305155 	0 -0.00353501 	0.0306558 	0 -0.00351081 	0.0307982 	0 -0.00348699 	0.0309427 	0 -0.00346356 	0.0310893 	0 -0.00348587 	0.031048 	0 -0.00333772 	0.0315066 	0 -0.00324755 	0.0319752 	0 -0.00316182 	0.0324714 	0 -0.00308036 	0.032994 	0 -0.00319717 	0.0326494 	0 -0.00289347 	0.0333249 	0 -0.00280666 	0.0338485 	0 -0.00272389 	0.0344005 	0 -0.00265445 	0.0349325 	0 -0.00289879 	0.0339332 	0 -0.0025289 	0.0348524 	0 -0.00238722 	0.0355035 	0 -0.00230696 	0.0361011 	0 -0.00235171 	0.0360663 	0 -0.002599 	0.0349128 	0 -0.00223515 	0.0359975 	0 -0.00199688 	0.0369236 	0 -0.0019197 	0.037555 	0 -0.00206301 	0.0369348 	0 -0.00230973 	0.0356338 	0 -0.00195674 	0.0368768 	0 -0.00164728 	0.0381396 	7.6047e-38 -0.00157534 	0.0387928 	6.47524e-37 -0.0018006 	0.037595 	1.22061e-36 -0.00204487 	0.0361558 	1.78683e-36 -0.00170663 	0.0375462 	1.15651e-36 -0.00137578 	0.0390716 	5.32466e-37 -0.00132724 	0.0395394 	7.82269e-40 -0.00157597 	0.038069 	1.66288e-39 -0.00181869 	0.0365015 	2.53321e-39 -0.00149771 	0.0380268 	1.5776e-39 -0.00118339 	0.0396898 	6.31049e-40 -0.00115218 	0.0399619 	-3.96209e-37 -0.00140414 	0.0383778 	-9.7518e-37 -0.00165045 	0.0366891 	-1.54786e-36 -0.00134748 	0.0383384 	-9.25394e-37 -0.00105064 	0.0401274 	-3.08546e-37 -0.00103886 	0.0402383 	0 -0.00130586 	0.0385444 	0 -0.00156704 	0.0367331 	0 -0.00128109 	0.0385031 	0 -0.0010011 	0.0404156 	0 -0.00100602 	0.0403724 	0 -0.00130883 	0.03856 	0 -0.00160463 	0.0366065 	0 -0.00133379 	0.0385115 	0 -0.00106936 	0.0405655 	0 -0.00107711 	0.0403242 	0 -0.00144831 	0.0383583 	0 -0.00180922 	0.0362069 	0 -0.00155322 	0.0382985 	0 -0.00130521 	0.040553 	0 -0.00128166 	0.0399412 	0 -0.00175773 	0.0377591 	0 -0.002225 	0.0352862 	0 -0.0019913 	0.0376929 	0 -0.00180368 	0.039525 	0 -0.00175756 	0.0385144 	0 -0.00221786 	0.0362444 	0 -0.0028361 	0.0332033 	0 -0.00265255 	0.0362131 	0 -0.00250852 	0.0369789 	0 -0.00239302 	0.0352763 	0 -0.00262474 	0.0328041 	0 -0.00341684 	0.0287496 	0 -0.00335522 	0.0329792 	0 -0.00308892 	0.0309235 	0 -0.00279133 	0.0279443 	0 -0.00249374 	0.0249651 	0 -0.00317883 	0.0195656 	0 -0.00308042 	0.0221899 	0 -0.00242012 	0.0174334 	0 -0.00175981 	0.0126768 	0 -0.00109951 	0.00792032 	0 -0.00015728 	0.000755652 	0 -0.000165823 	0.000962328 	0 -0.000131276 	0.000761841 	0 -9.67291e-05 	0.000561353 	0 -6.21822e-05 	0.000360866 	0 0 	0 	0
-0.0430476 	4.3284e-05 	0 -0.0430165 	0.00025528 	-2.02452e-23 -0.0429345 	0.000488358 	-4.62337e-23 -0.0428731 	0.000721946 	-7.23615e-23 -0.0428326 	0.000956039 	-9.86285e-23 -0.0427681 	0.00118063 	-1.25284e-22 -0.0426209 	0.00137629 	-1.54267e-22 -0.0424358 	0.00159505 	-1.54709e-22 -0.0422706 	0.00181532 	-1.54358e-22 -0.0421254 	0.00203713 	-1.53205e-22 -0.0420749 	0.00212738 	-1.52412e-22 -0.042062 	0.00215433 	-1.52699e-22 -0.0420496 	0.00218129 	-1.52981e-22 -0.0420374 	0.00220828 	-1.53258e-22 -0.0420255 	0.0022353 	-1.53531e-22 -0.0420044 	0.00226695 	-1.546e-22 -0.0417273 	0.00247448 	-1.26653e-22 -0.041466 	0.00268358 	-9.8685e-23 -0.0412251 	0.00289533 	-7.05291e-23 -0.041005 	0.0031098 	-4.21829e-23 -0.0406925 	0.00338599 	-1.91455e-23 -0.0403791 	0.00358232 	-4.80329e-24 -0.0400563 	0.00378586 	3.69407e-24 -0.0397542 	0.00399311 	1.24051e-23 -0.039473 	0.00420414 	2.13344e-23 -0.0389497 	0.00456497 	1.73561e-23 -0.038589 	0.00472166 	2.09617e-22 -0.0382282 	0.0049264 	2.52938e-22 -0.0378888 	0.00513605 	2.97543e-22 -0.0374713 	0.00540979 	2.73065e-22 -0.0368299 	0.00583999 	7.411e-23 -0.0364109 	0.00597318 	4.75023e-23 -0.036016 	0.00612992 	3.01867e-23 -0.0356638 	0.00635026 	4.21926e-23 -0.035011 	0.00678225 	7.47125e-23 -0.0343836 	0.00724077 	1.07514e-22 -0.033939 	0.00737212 	5.85538e-23 -0.0335122 	0.00751023 	9.39259e-24 -0.0328523 	0.00782622 	7.13621e-26 -0.0322391 	0.00829273 	1.66747e-23 -0.0316593 	0.00878775 	3.31234e-23 -0.0312222 	0.00893668 	5.11299e-24 -0.0305749 	0.00925996 	0 -0.029913 	0.00963901 	0 -0.0292937 	0.01004 	0 -0.0287325 	0.0104537 	0 -0.0287258 	0.0104598 	0 -0.028719 	0.0104659 	0 -0.0287123 	0.010472 	0 -0.0287043 	0.0104788 	0 -0.0286939 	0.0104869 	0 -0.0280327 	0.0108839 	0 -0.0274177 	0.0113107 	0 -0.0268477 	0.0117656 	0 -0.0262253 	0.0122975 	0 -0.0254428 	0.0129926 	0 -0.0248049 	0.0133864 	0 -0.0241993 	0.0138229 	0 -0.0234552 	0.0143707 	0 -0.0227782 	0.0149667 	0 -0.0220807 	0.0157095 	0 -0.0220801 	0.0157101 	0 -0.0220794 	0.0157108 	0 -0.0220786 	0.0157115 	0 -0.0220777 	0.0157122 	0 -0.0220768 	0.0157128 	0 -0.0213131 	0.016341 	0 -0.0206175 	0.0170327 	0 -0.0199775 	0.0177836 	-3.75553e-26 -0.0192643 	0.0185519 	-4.42643e-25 -0.0184282 	0.0196501 	-9.7625e-25 -0.0183351 	0.0197743 	-9.78664e-25 -0.0182441 	0.0199005 	-9.81504e-25 -0.0181495 	0.0200191 	-7.16892e-24 -0.0180493 	0.0201263 	-2.19165e-23 -0.0179561 	0.0202299 	-3.59068e-23 -0.0171769 	0.0210696 	-3.23448e-23 -0.0164771 	0.0219994 	-2.5382e-23 -0.0158224 	0.0228615 	-5.2833e-23 -0.015249 	0.0237312 	-1.10181e-22 -0.0148481 	0.0246252 	-1.87782e-22 -0.0147549 	0.0248201 	-2.51683e-22 -0.0146634 	0.025011 	-3.00924e-22 -0.0145707 	0.0251591 	-2.38784e-22 -0.0144798 	0.0253091 	-1.77059e-22 -0.0143814 	0.0254765 	-1.0946e-22 -0.0139287 	0.0261984 	2.53435e-22 -0.0135186 	0.0269738 	6.03969e-22 -0.0131495 	0.0277997 	9.42515e-22 -0.0129078 	0.0283933 	6.48175e-22 -0.0127395 	0.0288749 	2.28388e-22 -0.0120919 	0.0299483 	-1.29586e-22 -0.0114985 	0.0311056 	-4.92395e-22 -0.011123 	0.0318 	-9.13956e-23 -0.0108876 	0.0325687 	6.55692e-22 -0.0107935 	0.0333161 	1.62734e-21 -0.0104484 	0.0341614 	2.27244e-21 -0.0102127 	0.0347299 	2.03628e-21 -0.0100149 	0.0352308 	1.55329e-21 -0.00982678 	0.0357496 	1.08041e-21 -0.00956702 	0.0365276 	4.08103e-22 -0.00947617 	0.0368303 	3.05822e-22 -0.00938787 	0.037138 	2.03803e-22 -0.00930207 	0.0374506 	1.02042e-22 -0.00922207 	0.0377619 	2.8564e-24 -0.00928709 	0.0378156 	3.02715e-24 -0.00877536 	0.0387422 	-8.41452e-23 -0.00850381 	0.0397297 	-2.94177e-22 -0.00825422 	0.0407642 	-5.08132e-22 -0.00815846 	0.0415714 	-7.25484e-22 -0.00839721 	0.041725 	-9.37537e-22 -0.00772326 	0.0428876 	-6.14005e-22 -0.00712713 	0.0441318 	-1.5973e-22 -0.00694893 	0.0452835 	1.24499e-21 -0.00724357 	0.0454454 	2.36682e-21 -0.00752153 	0.0455731 	3.4505e-21 -0.00684318 	0.0469639 	1.91924e-21 -0.00619174 	0.048458 	4.0897e-22 -0.00603179 	0.0490853 	6.55324e-25 -0.00635551 	0.0492085 	3.63693e-24 -0.00666326 	0.0492925 	6.53773e-24 -0.00598554 	0.0509038 	2.70176e-24 -0.0054854 	0.0522179 	0 -0.00537776 	0.0526117 	0 -0.00550865 	0.0528224 	-2.99901e-21 -0.00583559 	0.0528423 	-8.50386e-21 -0.00516407 	0.054659 	-1.61304e-21 -0.00492659 	0.0554007 	0 -0.00482249 	0.0558196 	0 -0.00472104 	0.0562594 	0 -0.0050553 	0.0561964 	-1.07884e-23 -0.00448832 	0.0579108 	0 -0.00438644 	0.0583248 	0 -0.00428691 	0.05876 	0 -0.00418969 	0.059216 	0 -0.00433556 	0.0593117 	2.53799e-21 -0.00397416 	0.0605384 	3.30088e-37 -0.00387974 	0.060961 	9.66158e-37 -0.0037873 	0.0614041 	1.60111e-36 -0.0036968 	0.0618672 	2.23497e-36 -0.00369598 	0.0621757 	2.98289e-36 -0.00354315 	0.0627848 	3.2447e-36 -0.00348856 	0.063061 	2.69651e-36 -0.00343468 	0.0633453 	2.15135e-36 -0.00338147 	0.0636376 	1.60918e-36 -0.00331056 	0.0640431 	8.81214e-37 -0.00328745 	0.0641825 	6.96791e-37 -0.00326448 	0.0643235 	5.12445e-37 -0.00324164 	0.064466 	3.28178e-37 -0.00321893 	0.0646101 	1.43989e-37 -0.00321874 	0.0646007 	4.48329e-39 -0.00313419 	0.0650967 	-5.17968e-37 -0.00307136 	0.065525 	-1.08596e-36 -0.0030097 	0.0659685 	-1.65474e-36 -0.00294919 	0.0664269 	-2.2243e-36 -0.00297914 	0.0662252 	-2.79395e-36 -0.00285912 	0.0670336 	-2.17148e-36 -0.00282899 	0.0674687 	-1.55034e-36 -0.00279952 	0.067913 	-9.29616e-37 -0.0027707 	0.0683664 	-3.09292e-37 -0.00288546 	0.0676385 	0 -0.00273928 	0.0687931 	0 -0.00276264 	0.0692523 	0 -0.00278593 	0.0697105 	0 -0.00280915 	0.0701677 	0 -0.00301922 	0.0688776 	0 -0.00284014 	0.0704321 	0 -0.00294986 	0.0709495 	0 -0.00305821 	0.0714485 	0 -0.00316519 	0.0719297 	0 -0.00349531 	0.0699497 	0 -0.00324675 	0.0720184 	0 -0.00349405 	0.0726529 	0 -0.00373716 	0.0732403 	0 -0.00400392 	0.0733975 	0 -0.0044626 	0.0707723 	0 -0.0042289 	0.0731789 	0 -0.0045058 	0.0744295 	0 -0.00495714 	0.075187 	0 -0.00546723 	0.0743085 	0 -0.00606534 	0.0710091 	0 -0.00588179 	0.074019 	0 -0.00604263 	0.0764107 	0 -0.00680244 	0.077484 	0 -0.00756737 	0.0744223 	0 -0.008303 	0.0698621 	0 -0.00824138 	0.0740918 	0 -0.00820038 	0.078499 	0 -0.00907194 	0.0787386 	0 -0.00990265 	0.0723822 	0 -0.0106381 	0.065477 	0 -0.010848 	0.0722289 	0 -0.0111112 	0.0793191 	0 -0.0105613 	0.0756603 	0 -0.0110302 	0.0653794 	0 -0.0113032 	0.0543061 	0 -0.012027 	0.0664654 	0 -0.0115066 	0.0667767 	0 -0.00999901 	0.0580278 	0 -0.00849145 	0.0492789 	0 -0.00719512 	0.0312264 	0 -0.00790039 	0.0461945 	0 -0.00641752 	0.037524 	0 -0.00493465 	0.0288534 	0 -0.00345178 	0.0201829 	0 0 	0 	0