# vtk DataFile Version 2.0
track0
ASCII
DATASET POLYDATA
POINTS 41155 float
0.05 8.57988e-20 2.57396e-18
0.05 0.00217391 -1.05592e-17
0.05 0.00217391 -1.05592e-17
0.05 0.00217391 -1.05592e-17
0.05 0.00217391 -1.05592e-17
0.05 0.00217391 -1.05592e-17
0.05 0.00217391 -1.38778e-17
0.0493333 0.00217503 -6.66134e-18
0.0486667 0.00217719 -2.63678e-18
0.048 0.00218094 -3.86199e-18
0.0473334 0.00218786 1.21371e-18
0.0466667 0.00219734 0
0.046 0.00220924 1.06859e-17
0.0453333 0.0022206 8.81241e-18
0.0446667 0.00223258 6.45884e-18
0.0440001 0.00224758 1.08085e-17
0.0433333 0.00226606 4.16334e-18
0.0426667 0.00228837 1.48492e-17
0.0419999 0.00230874 1.67917e-17
0.0413332 0.00232937 1.61948e-17
0.0406666 0.00235296 1.48165e-17
0.04 0.00238054 6.93889e-18
0.0393333 0.00241326 1.06859e-17
0.0386665 0.00244285 7.07792e-18
0.0379997 0.0024732 4.95093e-18
0.0373331 0.00250654 8.95519e-18
0.0366667 0.00254377 6.93889e-18
0.036 0.00258733 9.29812e-18
0.0353331 0.00262683 1.74886e-17
0.0346663 0.00266861 2.40243e-17
0.0339997 0.00271359 1.98516e-17
0.0333333 0.00276189 1.80411e-17
0.0326667 0.00281733 1.01308e-17
0.0319998 0.0028697 1.60986e-17
0.0313331 0.00292548 1.19492e-17
0.0306668 0.00298484 1.26731e-17
0.03 0.00304797 1.80411e-17
0.0294499 0.00310504 2.58961e-17
0.0288998 0.00316183 2.05673e-17
0.0283499 0.00322128 2.05505e-17
0.0278004 0.00328351 2.1234e-17
0.0273799 0.00333333 2.95373e-17
0.0272373 0.00335083 2.36299e-17
0.0270947 0.00336854 2.18858e-17
0.0269521 0.00338645 2.70807e-17
0.0268095 0.00340457 3.6439e-17
0.0266667 0.00342293 3.63061e-17
0.026 0.00351157 3.93031e-17
0.0253338 0.00360343 4.09203e-17
0.0246682 0.00370011 3.59409e-17
0.0240034 0.0038018 3.91297e-17
0.0233333 0.00390967 3.51225e-17
0.0226667 0.00403604 3.07487e-17
0.0219994 0.00415918 2.91558e-17
0.0213331 0.00428763 3.00475e-17
0.0206681 0.0044222 3.67658e-17
0.02 0.004574 4.17266e-17
0.0193333 0.00475307 4.02843e-17
0.0186665 0.00493151 3.74605e-17
0.0179995 0.00510926 3.61817e-17
0.0173359 0.00529963 3.78716e-17
0.0166667 0.00552116 3.60822e-17
0.0160624 0.00575026 4.17551e-17
0.015459 0.00598159 3.89634e-17
0.0148598 0.00622366 3.8927e-17
0.0142675 0.00648234 3.55968e-17
0.0138776 0.00666667 3.37881e-17
0.0137687 0.00672091 3.95205e-17
0.0136603 0.00677592 3.415e-17
0.0135522 0.00683168 3.29422e-17
0.0134445 0.0068882 3.43579e-17
0.0133333 0.00694787 3.00628e-17
0.0126667 0.0073149 3.43088e-17
0.0120123 0.0077035 3.57434e-17
0.0113733 0.00811671 3.51098e-17
0.0107514 0.00855543 3.68105e-17
0.01 0.0091459 3.60822e-17
0.00980942 0.00931672 3.2395e-17
0.00962048 0.00948936 3.00914e-17
0.0094332 0.0096638 2.63397e-17
0.00924766 0.00984008 2.79579e-17
0.00908264 0.01 2.498e-17
0.00859944 0.0104767 2.33952e-17
0.00813935 0.0109757 1.54749e-17
0.00770385 0.0114964 1.49894e-17
0.007292 0.0120359 1.63854e-17
0.00666667 0.0129268 1.80411e-17
0.00661667 0.0130081 2.62845e-17
0.00656698 0.0130896 2.89773e-17
0.00651759 0.0131713 2.75073e-17
0.00646851 0.0132531 2.11467e-17
0.00642057 0.0133333 2.498e-17
0.00602302 0.014 2.38698e-17
0.00566183 0.014687 2.23787e-17
0.00533133 0.0153894 1.99096e-17
0.00502757 0.0161037 1.11494e-17
0.00479065 0.0166667 8.67108e-18
0.00451222 0.0173333 1.19654e-17
0.0042733 0.0180152 5.81673e-18
0.00406043 0.0187056 7.38294e-18
0.00385841 0.0193992 1.01664e-17
0.0036931 0.02 1.30586e-17
0.00362114 0.0202585 1.23898e-17
0.00355488 0.0205185 9.51513e-18
0.00349047 0.020779 1.42195e-17
0.00342751 0.0210398 1.19832e-17
0.00333333 0.0214396 1.75349e-17
0.00324733 0.0218183 6.79566e-18
0.00316396 0.0221977 9.43238e-18
0.00308313 0.0225776 1.34611e-17
0.00300477 0.022958 1.19428e-17
0.00292987 0.0233333 1.80411e-17
0.00279237 0.024 1.76248e-17
0.00267036 0.0246697 1.26932e-17
0.00255608 0.0253407 1.92888e-17
0.00244891 0.0260129 2.0689e-17
0.00234603 0.0266667 1.80411e-17
0.00222996 0.0273333 2.04003e-17
0.00213275 0.028003 2.13793e-17
0.00205118 0.0286748 2.35387e-17
0.00197532 0.0293472 2.13435e-17
0.00189039 0.03 1.80411e-17
0.00179094 0.0306667 1.76248e-17
0.00171157 0.031336 1.96326e-17
0.00165125 0.0320074 2.03175e-17
0.00159302 0.0326789 1.54408e-17
0.00152263 0.0333333 1.37557e-17
0.0014366 0.034 1.63501e-17
0.00137203 0.0346691 1.16176e-17
0.00132722 0.0353398 1.32007e-17
0.00128334 0.0360105 1.63101e-17
0.00122543 0.0366667 1.73882e-17
0.00115058 0.0373333 1.92475e-17
0.00109876 0.0380022 2.0864e-17
0.00106092 0.038672 1.8518e-17
0.00102309 0.0393418 1.27507e-17
0.000976319 0.04 1.91908e-17
0.000911035 0.0406667 2.20751e-17
0.000870681 0.0413353 2.50599e-17
0.000837997 0.0420044 2.16421e-17
0.000805314 0.0426734 2.36609e-17
0.000768855 0.0433333 2.92507e-17
0.000711902 0.044 2.657e-17
0.000682141 0.0446684 1.91285e-17
0.000653936 0.0453369 2.16434e-17
0.00062573 0.0460054 2.19179e-17
0.000597831 0.0466667 2.25967e-17
0.0005482 0.0473333 1.58098e-17
0.000523909 0.0480014 1.93914e-17
0.000499617 0.0486695 1.47058e-17
0.000475326 0.0493375 1.01238e-17
0.000451238 0.05 1.45141e-17
0.000408023 0.0506667 3.7267e-18
0.000387118 0.0513344 8.51644e-18
0.000366213 0.0520021 6.72716e-18
0.000345308 0.0526699 7.34987e-18
0.000324537 0.0533333 5.01065e-18
0.00028683 0.054 1.83267e-17
0.000268749 0.0546675 1.28765e-17
0.000250669 0.055335 1.08913e-17
0.000232589 0.0560025 1.01267e-17
0.000214598 0.0566667 5.19374e-18
0.000181378 0.0573333 4.27762e-18
0.000165448 0.0580006 1.02727e-17
0.000149517 0.0586679 -9.04178e-19
0.000133587 0.0593352 1.10704e-18
0.000117718 0.06 8.13063e-18
9.41744e-05 0.0605233 5.57188e-18
8.26554e-05 0.061047 9.93266e-18
7.11364e-05 0.0615707 8.04844e-18
5.96174e-05 0.0620944 -1.05933e-18
3.23679e-05 0.0633333 -1.11561e-17
2.58944e-05 0.0634851 -1.23672e-17
2.25501e-05 0.0636369 -1.37568e-17
1.92058e-05 0.0637887 -1.38453e-17
1.58615e-05 0.0639406 -1.21991e-17
0 0.0646607 -1.9994e-17
0.05 0.00434783 5.94331e-18
0.0493333 0.00434873 4.55402e-18
0.0486667 0.00435271 -4.47317e-18
0.048 0.00435908 -3.26135e-18
0.0473334 0.00436712 3.73373e-18
0.0466667 0.00437807 3.81128e-18
0.046 0.00439303 -1.76475e-18
0.0453334 0.00440966 -3.87411e-18
0.0446668 0.00442793 -3.60741e-18
0.0440003 0.00444783 -8.71169e-18
0.0433333 0.00447163 -1.04586e-17
0.0426667 0.00450064 -6.10196e-18
0.042 0.00453011 -3.824e-18
0.0413334 0.00456028 -4.85841e-19
0.0406669 0.0045921 -1.1433e-17
0.04 0.00462951 -1.25669e-17
0.0393333 0.00467342 -1.36809e-17
0.0386666 0.0047168 -1.47939e-17
0.0379999 0.00475963 -1.63249e-17
0.0373333 0.00480474 -9.76202e-18
0.0366667 0.00485743 -4.29999e-18
0.036 0.00491801 -8.89518e-18
0.0353332 0.00497732 -1.7988e-17
0.0346663 0.00503534 -1.99308e-17
0.0339998 0.00509705 -2.09508e-17
0.0333333 0.00516775 -1.38778e-17
0.0326667 0.00524789 -1.91513e-17
0.0319998 0.00532633 -1.4363e-17
0.0313327 0.00540304 -1.62188e-17
0.0306664 0.00548577 -1.64215e-17
0.03 0.00557864 -1.80411e-17
0.0293333 0.00568265 -2.19269e-17
0.0286664 0.00578491 -2.48408e-17
0.028 0.00589055 -2.12765e-17
0.0273348 0.0060035 -2.3996e-17
0.0266667 0.00612495 -2.91434e-17
0.0261284 0.00623329 -2.96348e-17
0.0255902 0.00634174 -3.01262e-17
0.0250531 0.00645564 -2.2553e-17
0.0245172 0.00657522 -1.89974e-17
0.0241278 0.00666667 -2.90786e-17
0.0239689 0.00670539 -2.81201e-17
0.0238102 0.00674469 -2.85496e-17
0.0236515 0.00678457 -3.10611e-17
0.0234931 0.00682503 -3.07972e-17
0.0233333 0.00686647 -2.67005e-17
0.0226667 0.00704427 -2.14455e-17
0.0220025 0.00723121 -2.03691e-17
0.0213415 0.00742897 -2.23229e-17
0.020684 0.00763803 -1.68686e-17
0.02 0.00787225 -1.98868e-17
0.0193333 0.00812578 -1.5784e-17
0.0186708 0.00838982 -1.53975e-17
0.0180127 0.00866499 -1.74264e-17
0.0173621 0.00895726 -1.42229e-17
0.0166667 0.00929828 -1.11022e-17
0.0164059 0.00943863 -5.9854e-18
0.0161462 0.00958097 -5.21028e-19
0.0158878 0.00972558 -4.25398e-18
0.015631 0.00987318 -2.43864e-18
0.0154163 0.01 -6.93889e-18
0.0149997 0.0102518 -1.17963e-18
0.0145892 0.0105133 3.37174e-19
0.0141851 0.0107848 -2.8063e-18
0.0137879 0.0110661 3.10009e-18
0.0133333 0.0114079 1.81867e-18
0.0128564 0.011793 4.75686e-18
0.0123898 0.0121905 3.28588e-18
0.0119339 0.0126003 4.06522e-18
0.0114897 0.0130227 7.51463e-18
0.0111809 0.0133333 1.21397e-17
0.0109447 0.0135806 7.90762e-18
0.0107139 0.0138329 1.16017e-17
0.0104885 0.01409 -9.41241e-19
0.0102685 0.0143517 3.3305e-18
0.01 0.0146843 5.58311e-18
0.00969585 0.0150808 -5.06519e-19
0.00940092 0.0154842 -5.161e-18
0.00911519 0.0158941 2.16739e-18
0.00883818 0.01631 6.09816e-18
0.00860882 0.0166667 1.11022e-17
0.00822039 0.0172887 6.65676e-18
0.00785956 0.0179272 3.51459e-19
0.00752511 0.0185799 4.0853e-18
0.00720915 0.0192417 5.04465e-18
0.00687159 0.02 7.45079e-18
0.0068306 0.0200986 4.57285e-18
0.00679024 0.0201974 3.85259e-18
0.00675038 0.0202964 6.94618e-18
0.00671092 0.0203956 5.44235e-18
0.00666667 0.0205082 6.8205e-18
0.00644746 0.0210732 1.79464e-17
0.00623986 0.0216426 1.7222e-17
0.00604322 0.0222159 2.67173e-17
0.00585687 0.0227926 2.70225e-17
0.00568818 0.0233333 3.60822e-17
0.00547883 0.024 3.35842e-17
0.00529195 0.0246733 3.66263e-17
0.00512644 0.0253522 3.85605e-17
0.00496881 0.0260329 3.84444e-17
0.00481822 0.0266667 4.11793e-17
0.00465621 0.0273333 3.62643e-17
0.0045152 0.0280048 3.77302e-17
0.00439081 0.0286795 4.1057e-17
0.00427061 0.0293549 3.83036e-17
0.0041549 0.03 3.40202e-17
0.00403016 0.0306667 3.28401e-17
0.00392461 0.0313366 3.17724e-17
0.00382337 0.0320073 3.51681e-17
0.00372577 0.0326785 3.50912e-17
0.00363402 0.0333333 3.69693e-17
0.00357388 0.0337548 2.82304e-17
0.0035187 0.034177 2.60763e-17
0.00346487 0.0345993 3.10326e-17
0.00341234 0.0350218 3.20777e-17
0.00333333 0.0356735 2.498e-17
0.00331016 0.0358721 2.49414e-17
0.00328725 0.0360708 2.07399e-17
0.0032646 0.0362695 2.07022e-17
0.00324221 0.0364682 2.48283e-17
0.0032201 0.0366667 2.08167e-17
0.00314525 0.0373333 1.6237e-17
0.00307457 0.0380005 7.84019e-18
0.00300678 0.0386679 1.47218e-17
0.00294177 0.0393356 1.32257e-17
0.00287973 0.04 1.80411e-17
0.00281445 0.0406667 1.34615e-17
0.0027565 0.041334 1.65134e-17
0.00270115 0.0420016 2.60089e-17
[...]
POINT_DATA 41155
 FIELD attributes 1
U 3 41155 float
-6.4477e-19 	-1.69956e-21 	0
-0.0152271 	2.54214e-05 	0 -0.0152271 	2.54214e-05 	0 -0.0152271 	2.54214e-05 	0 -0.0152271 	2.54214e-05 	0 -0.0152271 	2.54214e-05 	0 -0.0152271 	2.54214e-05 	0 -0.0155606 	5.0544e-05 	0 -0.015798 	8.87852e-05 	-3.93828e-25 -0.0157582 	0.000163527 	-1.8839e-24 -0.0155049 	0.000220505 	-3.38096e-24 -0.0151808 	0.000270991 	-4.88391e-24 -0.0155054 	0.00026417 	1.91313e-22 -0.015688 	0.00028189 	3.22482e-22 -0.0155876 	0.00035078 	3.18622e-22 -0.0153539 	0.000425583 	1.90526e-22 -0.0150586 	0.000504065 	-6.06549e-24 -0.0153606 	0.000469229 	3.53658e-23 -0.0154517 	0.000478204 	5.6387e-23 -0.0153019 	0.000541481 	5.23759e-23 -0.0150975 	0.000624563 	2.86335e-23 -0.0148422 	0.000728518 	-1.5625e-23 -0.0151107 	0.000670548 	-1.14641e-23 -0.0150807 	0.000686287 	-2.84443e-23 -0.0148954 	0.0007451 	-5.75696e-23 -0.0147115 	0.000821682 	-8.79046e-23 -0.0145041 	0.000947903 	-1.2152e-22 -0.0147312 	0.000872306 	-9.17533e-23 -0.0145607 	0.000912423 	-8.68887e-23 -0.0143546 	0.000968651 	-8.54028e-23 -0.014165 	0.00102666 	-8.41993e-23 -0.0140106 	0.00116523 	-1.10587e-22 -0.0141089 	0.00110773 	-1.93591e-22 -0.0138806 	0.00116156 	-1.55466e-22 -0.013668 	0.0012175 	-1.16761e-22 -0.0134719 	0.00127564 	-7.74534e-23 -0.0133356 	0.00138355 	1.08356e-23 -0.0132887 	0.00137158 	-4.68447e-23 -0.0131034 	0.00141689 	-3.33597e-23 -0.0129288 	0.00146395 	-1.9197e-23 -0.0127652 	0.00151282 	-4.33259e-24 -0.0126487 	0.00155166 	7.60198e-24 -0.0126119 	0.00156553 	1.18803e-23 -0.012576 	0.00157955 	1.62115e-23 -0.0125409 	0.0015937 	2.05959e-23 -0.0125066 	0.00160799 	2.50338e-23 -0.0124359 	0.00165357 	9.21974e-24 -0.0121972 	0.00168167 	6.84018e-24 -0.0119936 	0.00174214 	7.75971e-24 -0.0118061 	0.0018059 	8.6484e-24 -0.0116354 	0.0018731 	9.5049e-24 -0.0112777 	0.0021378 	5.15198e-23 -0.0109268 	0.00201649 	3.81465e-22 -0.0107381 	0.00207013 	4.68263e-22 -0.0105758 	0.00214 	5.40691e-22 -0.0103121 	0.00234316 	4.40069e-22 -0.00997838 	0.00268025 	1.81563e-22 -0.00967086 	0.00258783 	4.48016e-22 -0.00936173 	0.00249472 	7.14453e-22 -0.00904859 	0.00259615 	7.28622e-22 -0.00878126 	0.00290657 	4.94434e-22 -0.00856104 	0.00324574 	2.61425e-22 -0.0083372 	0.003196 	4.65695e-22 -0.00805511 	0.00325426 	5.01454e-22 -0.007757 	0.00338823 	4.34394e-22 -0.00749255 	0.00354172 	3.63967e-22 -0.00734021 	0.00365799 	3.14605e-22 -0.00729248 	0.00369775 	3.00639e-22 -0.00724622 	0.00373847 	2.86528e-22 -0.00720145 	0.00378017 	2.72269e-22 -0.00714319 	0.0038338 	2.70648e-22 -0.00707713 	0.00389634 	2.75293e-22 -0.00667265 	0.00396274 	1.82752e-22 -0.00640559 	0.00414168 	9.87133e-23 -0.00616829 	0.00435186 	1.92519e-23 -0.00589876 	0.00463532 	2.61639e-23 -0.00562071 	0.00503783 	3.22389e-23 -0.005559 	0.00507928 	1.85973e-23 -0.00550042 	0.00512365 	4.94925e-24 -0.00544406 	0.00517199 	3.02832e-23 -0.00539039 	0.00522392 	7.78e-23 -0.00534513 	0.00527326 	1.20473e-22 -0.0050379 	0.0054643 	1.21327e-22 -0.00476365 	0.0056949 	1.16213e-22 -0.00452941 	0.00593348 	1.05085e-22 -0.00433351 	0.00617419 	8.84291e-23 -0.00406606 	0.00661213 	5.37231e-23 -0.00404926 	0.00664028 	8.90089e-23 -0.00403286 	0.00666894 	1.23991e-22 -0.00401683 	0.00669812 	1.5867e-22 -0.00401711 	0.00671965 	8.4625e-23 -0.00401923 	0.00674004 	4.01307e-25 -0.00363267 	0.00691007 	-6.79981e-22 -0.00342026 	0.00726812 	-1.12426e-21 -0.00326778 	0.00768411 	-1.50485e-21 -0.00335823 	0.00798043 	-1.19277e-21 -0.00343239 	0.00821839 	-9.46409e-22 -0.00300601 	0.00857832 	-6.22137e-22 -0.00274095 	0.00888982 	-3.65144e-22 -0.00264791 	0.00909203 	-1.98265e-22 -0.00256456 	0.00931996 	-2.64561e-23 -0.00269433 	0.00967993 	1.78622e-23 -0.00252876 	0.00992324 	1.45503e-24 -0.0024804 	0.0100305 	0 -0.0024448 	0.0101288 	0 -0.00241073 	0.0102319 	0 -0.00236088 	0.0103967 	0 -0.00231806 	0.0105476 	0 -0.00227797 	0.0107075 	0 -0.00224052 	0.0108762 	0 -0.00220562 	0.0110532 	0 -0.00226885 	0.0110007 	0 -0.00202163 	0.0110963 	0 -0.00194871 	0.0114423 	0 -0.0018849 	0.0118225 	0 -0.00189499 	0.0120419 	0 -0.00205755 	0.0118177 	0 -0.00173723 	0.0119682 	0 -0.00148878 	0.0122609 	0 -0.00144185 	0.0127812 	0 -0.00163352 	0.0125553 	0 -0.00182242 	0.0122169 	0 -0.00148209 	0.012498 	0 -0.00116013 	0.0129125 	0 -0.00112818 	0.0130109 	0 -0.00136071 	0.0126509 	0 -0.00157323 	0.0121909 	0 -0.00121765 	0.0126182 	0 -0.000883286 	0.0132214 	0 -0.000840556 	0.0128484 	0 -0.00109441 	0.0123989 	0 -0.0013265 	0.0118147 	0 -0.00096075 	0.0124002 	0 -0.000720114 	0.0127478 	0 -0.000695317 	0.0123088 	0 -0.00083645 	0.0117731 	0 -0.0010839 	0.0110685 	0 -0.000713343 	0.0118195 	0 -0.000577325 	0.0118184 	0 -0.000555654 	0.0113747 	0 -0.000599813 	0.0108566 	0 -0.000857907 	0.0100423 	0 -0.000488038 	0.0109615 	0 -0.00044772 	0.0106114 	0 -0.000429207 	0.0101726 	0 -0.000410694 	0.00973382 	0 -0.000657927 	0.00883764 	0 -0.000349033 	0.00959918 	0 -0.000333567 	0.00917382 	0 -0.000318101 	0.00874847 	0 -0.000302635 	0.00832312 	0 -0.000481811 	0.0074328 	0 -0.000247871 	0.00791736 	0 -0.000235171 	0.00751171 	0 -0.000222472 	0.00710606 	0 -0.000209772 	0.00670042 	0 -0.000332359 	0.00587608 	2.90409e-37 -0.000164832 	0.00608528 	0 -0.000154442 	0.00570169 	0 -0.000144052 	0.00531811 	0 -0.000133662 	0.00493452 	0 -0.000210369 	0.00422176 	2.93013e-40 -9.93327e-05 	0.00416099 	0 -9.06084e-05 	0.00379553 	0 -8.18842e-05 	0.00343008 	0 -7.31599e-05 	0.00306463 	0 -0.00011216 	0.00249299 	-1.05178e-37 -5.09644e-05 	0.00231709 	0 -4.47307e-05 	0.00203368 	0 -3.84969e-05 	0.00175026 	0 -3.22632e-05 	0.00146685 	0 -3.12798e-05 	0.00073314 	0 -1.49843e-05 	0.000680284 	0 -1.30491e-05 	0.000592424 	0 -1.11138e-05 	0.000504565 	0 -9.17858e-06 	0.000416706 	0 0 	0 	0
-0.0296151 	4.03692e-05 	0 -0.0298365 	0.000178042 	0 -0.0299451 	0.000285931 	-6.97783e-25 -0.0299233 	0.000360963 	-2.16533e-24 -0.0297362 	0.000488357 	-1.78467e-23 -0.029419 	0.000660234 	-4.55564e-23 -0.0295508 	0.000737114 	-2.25393e-22 -0.0296096 	0.000811598 	-3.36288e-22 -0.0295517 	0.000882222 	-3.42163e-22 -0.0292721 	0.00104451 	-2.31701e-22 -0.0288913 	0.00125737 	-5.89606e-23 -0.028935 	0.00127898 	-6.9489e-23 -0.0289516 	0.00131048 	-7.86728e-23 -0.0288632 	0.00137774 	-8.28918e-23 -0.0284688 	0.00159717 	-5.60717e-23 -0.0280485 	0.00184754 	-2.36449e-23 -0.0280121 	0.00182239 	-4.66295e-23 -0.0279725 	0.00179689 	-6.96147e-23 -0.0278182 	0.00188272 	-9.25952e-23 -0.0273443 	0.00216103 	-8.98491e-23 -0.0269096 	0.00244534 	-8.67429e-23 -0.0268054 	0.00238434 	-2.74074e-22 -0.0266945 	0.00232233 	-4.61498e-22 -0.0263898 	0.00244341 	-4.46037e-22 -0.0259225 	0.00275015 	-2.27986e-22 -0.0254975 	0.00306497 	-9.37042e-24 -0.0253406 	0.00298078 	1.52537e-22 -0.0251757 	0.002895 	3.14377e-22 -0.0246584 	0.00306132 	3.27532e-22 -0.0242159 	0.00337478 	2.40145e-22 -0.0238219 	0.00371666 	1.40124e-22 -0.0236289 	0.00362282 	2.78694e-22 -0.0232409 	0.00368415 	3.14771e-22 -0.0227343 	0.00386021 	2.78337e-22 -0.0222564 	0.00404592 	2.40697e-22 -0.0219104 	0.00441025 	9.28852e-23 -0.0217019 	0.00437286 	8.49865e-23 -0.0213031 	0.00451732 	1.15809e-22 -0.0209229 	0.00466915 	1.47147e-22 -0.0205624 	0.0048287 	1.79023e-22 -0.0203148 	0.00495081 	2.02652e-22 -0.0202184 	0.00500487 	2.04506e-22 -0.0201239 	0.00505975 	2.06296e-22 -0.0200315 	0.00511546 	2.08021e-22 -0.0199412 	0.00517199 	2.0968e-22 -0.0197863 	0.00527704 	2.17861e-22 -0.0192821 	0.00542739 	1.97565e-22 -0.0188604 	0.00564245 	2.01814e-22 -0.0184706 	0.00587278 	2.03675e-22 -0.018037 	0.0061768 	2.23008e-22 -0.0174621 	0.0066407 	2.82777e-22 -0.0169728 	0.00676393 	1.60484e-22 -0.0165141 	0.00690565 	3.73365e-23 -0.0159554 	0.00716741 	0 -0.0155035 	0.0076024 	4.02254e-23 -0.0150743 	0.00811262 	8.12764e-23 -0.0149301 	0.00818384 	3.48167e-23 -0.0147773 	0.00826862 	0 -0.0145893 	0.00838732 	0 -0.0144089 	0.00851141 	0 -0.0142635 	0.00862049 	0 -0.0139361 	0.00887916 	0 -0.0136322 	0.00915714 	0 -0.0133526 	0.00945473 	0 -0.0130118 	0.00978647 	0 -0.0126363 	0.0102026 	0 -0.012285 	0.0104654 	0 -0.0119673 	0.0107586 	0 -0.0116353 	0.0110625 	0 -0.0113246 	0.0113923 	0 -0.0111289 	0.0116507 	0 -0.0109071 	0.0119206 	0 -0.0106994 	0.012205 	0 -0.0104889 	0.0124749 	-1.83801e-23 -0.0102786 	0.0127354 	-5.14034e-23 -0.0100325 	0.0130777 	-9.26049e-23 -0.00978054 	0.0133776 	-9.89331e-23 -0.00955098 	0.0137031 	-1.06368e-22 -0.00934864 	0.0140353 	-1.37283e-22 -0.00919362 	0.0142969 	-2.85075e-22 -0.00907547 	0.0145341 	-4.10746e-22 -0.00855631 	0.01514 	-6.34976e-22 -0.00809751 	0.015802 	-8.24459e-22 -0.00777055 	0.0162765 	-5.29081e-22 -0.00747871 	0.0168003 	-2.38761e-22 -0.00727737 	0.0175022 	1.44602e-22 -0.00720976 	0.0176508 	2.42089e-22 -0.00715332 	0.0177705 	2.71254e-22 -0.00710663 	0.0178644 	2.40177e-22 -0.00706082 	0.0179597 	2.09436e-22 -0.0070099 	0.0180692 	1.74987e-22 -0.00676809 	0.0185631 	1.59676e-22 -0.00655087 	0.0190984 	1.45815e-22 -0.00635679 	0.0196722 	1.3332e-22 -0.00628368 	0.0201435 	1.3546e-22 -0.00639599 	0.0203675 	1.6088e-22 -0.00582909 	0.0210018 	1.01031e-22 -0.00529633 	0.0217244 	4.22644e-23 -0.00520601 	0.0224833 	1.70196e-22 -0.00542876 	0.0228444 	3.56212e-22 -0.00562909 	0.023164 	5.28003e-22 -0.00504949 	0.0240432 	2.33338e-22 -0.00458636 	0.0248774 	0 -0.0044823 	0.0251888 	0 -0.00458435 	0.0255571 	2.90737e-25 -0.00485243 	0.0259332 	8.17472e-25 -0.00426566 	0.027076 	3.00087e-26 -0.00414488 	0.027458 	0 -0.00404765 	0.0278337 	0 -0.0039556 	0.028234 	0 -0.00408578 	0.028636 	-1.21558e-22 -0.00382651 	0.0292753 	0 -0.00376434 	0.0295301 	0 -0.0037042 	0.0297957 	0 -0.00364604 	0.030072 	0 -0.00355934 	0.030514 	0 -0.00353478 	0.0306541 	0 -0.0035106 	0.0307964 	0 -0.0034868 	0.0309408 	0 -0.00346339 	0.0310872 	0 -0.00348568 	0.0310459 	0 -0.00333759 	0.0315046 	0 -0.00324743 	0.0319731 	0 -0.00316171 	0.0324692 	0 -0.00308027 	0.0329918 	0 -0.00319704 	0.0326474 	0 -0.0028934 	0.0333227 	0 -0.00280659 	0.0338463 	0 -0.00272384 	0.0343983 	0 -0.00265438 	0.0349304 	0 -0.0028987 	0.0339312 	0 -0.00252883 	0.0348503 	0 -0.0023872 	0.0355013 	0 -0.00230696 	0.0360988 	0 -0.00235168 	0.0360642 	0 -0.00259897 	0.0349108 	0 -0.00223513 	0.0359954 	0 -0.0019969 	0.0369214 	0 -0.00191973 	0.0375527 	0 -0.00206301 	0.0369327 	0 -0.00230974 	0.0356318 	0 -0.00195675 	0.0368748 	0 -0.00164732 	0.0381374 	7.60781e-38 -0.00157539 	0.0387905 	6.47535e-37 -0.00180064 	0.0375929 	1.2206e-36 -0.00204491 	0.0361539 	1.7868e-36 -0.00170667 	0.0375442 	1.1565e-36 -0.00137583 	0.0390694 	5.32471e-37 -0.0013273 	0.0395373 	7.82313e-40 -0.00157603 	0.038067 	1.66294e-39 -0.00181877 	0.0364996 	2.53327e-39 -0.00149777 	0.0380248 	1.57764e-39 -0.00118346 	0.0396877 	6.31076e-40 -0.00115225 	0.0399598 	-3.96206e-37 -0.00140423 	0.0383758 	-9.75157e-37 -0.00165055 	0.0366872 	-1.54781e-36 -0.00134757 	0.0383364 	-9.25366e-37 -0.00105072 	0.0401253 	-3.08536e-37 -0.00103895 	0.0402362 	0 -0.00130597 	0.0385424 	0 -0.00156716 	0.0367312 	0 -0.00128119 	0.0385011 	0 -0.00100118 	0.0404135 	0 -0.0010061 	0.0403702 	0 -0.00130894 	0.038558 	0 -0.00160475 	0.0366045 	0 -0.00133389 	0.0385095 	0 -0.00106943 	0.0405634 	0 -0.00107717 	0.040322 	0 -0.0014484 	0.0383562 	0 -0.00180933 	0.0362048 	0 -0.0015533 	0.0382964 	0 -0.00130526 	0.0405509 	0 -0.00128172 	0.0399388 	0 -0.00175778 	0.0377569 	0 -0.00222507 	0.0352841 	0 -0.00199133 	0.0376907 	0 -0.00180369 	0.0395225 	0 -0.00175757 	0.0385118 	0 -0.00221782 	0.036242 	0 -0.00283608 	0.0332009 	0 -0.00265248 	0.0362108 	0 -0.00250842 	0.0369761 	0 -0.00239291 	0.0352734 	0 -0.00262453 	0.0328014 	0 -0.00341664 	0.0287469 	0 -0.00335497 	0.0329766 	0 -0.00308863 	0.0309201 	0 -0.00279103 	0.0279409 	0 -0.00249343 	0.0249616 	0 -0.00317836 	0.0195624 	0 -0.00307994 	0.0221864 	0 -0.00241975 	0.0174307 	0 -0.00175956 	0.012675 	0 -0.00109936 	0.00791927 	0 -0.000156504 	0.000751918 	0 -0.000165003 	0.000957575 	0 -0.000130627 	0.000758079 	0 -9.62515e-05 	0.000558583 	0 -6.18756e-05 	0.000359087 	0 0 	0 	0
-0.0430443 	4.33471e-05 	0 -0.0430132 	0.000255323 	-2.02365e-23 -0.0429312 	0.00048838 	-4.62138e-23 -0.0428699 	0.000721947 	-7.23304e-23 -0.0428293 	0.000956019 	-9.85861e-23 -0.0427648 	0.00118059 	-1.2523e-22 -0.0426176 	0.00137623 	-1.54192e-22 -0.0424326 	0.00159497 	-1.54624e-22 -0.0422673 	0.00181523 	-1.54264e-22 -0.0421221 	0.00203701 	-1.53102e-22 -0.0420716 	0.00212721 	-1.52306e-22 -0.0420588 	0.00215416 	-1.52592e-22 -0.0420463 	0.00218113 	-1.52873e-22 -0.0420341 	0.00220813 	-1.53149e-22 -0.0420222 	0.00223516 	-1.53421e-22 -0.0420011 	0.00226682 	-1.54489e-22 -0.0417241 	0.00247433 	-1.26556e-22 -0.0414628 	0.0026834 	-9.86005e-23 -0.0412219 	0.00289514 	-7.04578e-23 -0.0410018 	0.00310959 	-4.21253e-23 -0.0406894 	0.00338576 	-1.91015e-23 -0.0403759 	0.00358207 	-4.67927e-24 -0.0400532 	0.00378559 	3.82298e-24 -0.039751 	0.00399282 	1.254e-23 -0.0394699 	0.00420384 	2.14762e-23 -0.0389466 	0.00456464 	1.73169e-23 -0.0385859 	0.00472132 	2.09816e-22 -0.0382252 	0.00492604 	2.53169e-22 -0.0378858 	0.00513567 	2.97806e-22 -0.0374683 	0.00540939 	2.7328e-22 -0.036827 	0.00583955 	7.40947e-23 -0.036408 	0.00597274 	4.7501e-23 -0.0360131 	0.00612946 	3.01954e-23 -0.0356609 	0.00634978 	4.22051e-23 -0.0350082 	0.00678174 	7.47364e-23 -0.0343808 	0.00724023 	1.07548e-22 -0.0339362 	0.00737156 	5.85722e-23 -0.0335094 	0.00750966 	9.3944e-24 -0.0328496 	0.00782563 	7.06279e-26 -0.0322365 	0.0082921 	1.66793e-23 -0.0316567 	0.00878708 	3.31333e-23 -0.0312196 	0.008936 	5.11379e-24 -0.0305723 	0.00925926 	0 -0.0299106 	0.00963828 	0 -0.0292912 	0.0100392 	0 -0.0287302 	0.0104528 	0 -0.0287235 	0.0104589 	0 -0.0287167 	0.0104651 	0 -0.02871 	0.0104712 	0 -0.028702 	0.010478 	0 -0.0286915 	0.0104861 	0 -0.0280304 	0.0108831 	0 -0.0274154 	0.0113098 	0 -0.0268455 	0.0117647 	0 -0.0262231 	0.0122966 	0 -0.0254407 	0.0129916 	0 -0.0248028 	0.0133854 	0 -0.0241973 	0.0138219 	0 -0.0234532 	0.0143696 	0 -0.0227763 	0.0149656 	0 -0.0220788 	0.0157083 	0 -0.0220782 	0.015709 	0 -0.0220775 	0.0157096 	0 -0.0220767 	0.0157103 	0 -0.0220758 	0.0157109 	0 -0.022075 	0.0157116 	0 -0.0213113 	0.0163398 	0 -0.0206158 	0.0170314 	0 -0.0199758 	0.0177823 	-2.1627e-26 -0.0192627 	0.0185506 	-2.54892e-25 -0.0184266 	0.0196487 	-5.62167e-25 -0.0183335 	0.0197729 	-5.63557e-25 -0.0182425 	0.019899 	-5.65193e-25 -0.018148 	0.0200176 	-6.72194e-24 -0.0180478 	0.0201248 	-2.13988e-23 -0.0179546 	0.0202283 	-3.53221e-23 -0.0171754 	0.021068 	-3.12021e-23 -0.0164757 	0.0219978 	-2.36685e-23 -0.0158211 	0.0228597 	-5.17987e-23 -0.0152477 	0.0237295 	-1.10616e-22 -0.0148469 	0.0246232 	-1.897e-22 -0.0147537 	0.0248181 	-2.53909e-22 -0.0146621 	0.0250092 	-3.034e-22 -0.0145695 	0.0251573 	-2.41052e-22 -0.0144786 	0.0253073 	-1.7912e-22 -0.0143801 	0.0254748 	-1.11292e-22 -0.0139275 	0.0261966 	2.50827e-22 -0.0135175 	0.0269718 	6.0063e-22 -0.0131485 	0.0277976 	9.38488e-22 -0.0129068 	0.0283911 	6.45581e-22 -0.0127386 	0.0288726 	2.27568e-22 -0.012091 	0.0299459 	-1.28385e-22 -0.0114977 	0.0311031 	-4.89148e-22 -0.0111222 	0.0317975 	-8.82448e-23 -0.0108868 	0.0325661 	6.58665e-22 -0.0107928 	0.0333134 	1.62971e-21 -0.0104476 	0.0341588 	2.27503e-21 -0.0102119 	0.0347274 	2.03854e-21 -0.0100142 	0.0352283 	1.55505e-21 -0.00982599 	0.0357471 	1.08168e-21 -0.00956622 	0.0365251 	4.08644e-22 -0.00947541 	0.0368277 	3.06227e-22 -0.00938715 	0.0371354 	2.04073e-22 -0.00930139 	0.0374478 	1.02177e-22 -0.00922142 	0.037759 	2.85825e-24 -0.00928643 	0.0378127 	3.02904e-24 -0.00877481 	0.0387392 	-8.42396e-23 -0.00850329 	0.0397266 	-2.94412e-22 -0.00825373 	0.040761 	-5.0851e-22 -0.00815794 	0.0415682 	-7.26008e-22 -0.00839667 	0.0417217 	-9.38204e-22 -0.00772278 	0.0428843 	-6.14452e-22 -0.00712676 	0.0441283 	-1.59795e-22 -0.00694854 	0.04528 	1.24523e-21 -0.00724317 	0.0454419 	2.36713e-21 -0.00752111 	0.0455696 	3.45088e-21 -0.00684282 	0.0469603 	1.91951e-21 -0.00619144 	0.0484542 	4.09132e-22 -0.00603151 	0.0490816 	6.55672e-25 -0.00635522 	0.0492048 	3.63734e-24 -0.00666296 	0.0492888 	6.5382e-24 -0.00598529 	0.0508999 	2.70212e-24 -0.00548515 	0.052214 	0 -0.00537752 	0.0526078 	0 -0.00550845 	0.0528184 	-2.99953e-21 -0.00583539 	0.0528384 	-8.50444e-21 -0.00516391 	0.0546549 	-1.61349e-21 -0.00492642 	0.0553967 	0 -0.00482234 	0.0558155 	0 -0.0047209 	0.0562553 	0 -0.0050552 	0.0561924 	-1.07889e-23 -0.00448823 	0.0579067 	0 -0.00438636 	0.0583207 	0 -0.00428684 	0.0587559 	0 -0.00418963 	0.0592118 	0 -0.00433553 	0.0593076 	2.53815e-21 -0.00397414 	0.0605343 	3.30061e-37 -0.00387973 	0.0609569 	9.66113e-37 -0.0037873 	0.0613999 	1.60105e-36 -0.00369682 	0.061863 	2.23489e-36 -0.00369601 	0.0621715 	2.9828e-36 -0.00354319 	0.0627807 	3.24465e-36 -0.00348861 	0.0630568 	2.69647e-36 -0.00343473 	0.0633411 	2.15132e-36 -0.00338154 	0.0636335 	1.60917e-36 -0.00331064 	0.0640389 	8.81235e-37 -0.00328754 	0.0641784 	6.96806e-37 -0.00326457 	0.0643194 	5.12456e-37 -0.00324173 	0.0644619 	3.28184e-37 -0.00321902 	0.0646059 	1.43989e-37 -0.00321883 	0.0645966 	4.48335e-39 -0.00313429 	0.0650926 	-5.17942e-37 -0.00307147 	0.0655209 	-1.08591e-36 -0.00300982 	0.0659644 	-1.65467e-36 -0.00294932 	0.0664228 	-2.22421e-36 -0.00297929 	0.0662211 	-2.79384e-36 -0.00285926 	0.0670296 	-2.17139e-36 -0.00282914 	0.0674646 	-1.55027e-36 -0.00279968 	0.0679089 	-9.29557e-37 -0.00277087 	0.0683624 	-3.0925e-37 -0.00288566 	0.0676344 	0 -0.00273945 	0.0687891 	0 -0.00276282 	0.0692483 	0 -0.00278611 	0.0697066 	0 -0.00280933 	0.0701638 	0 -0.00301944 	0.0688736 	0 -0.00284031 	0.0704282 	0 -0.00295004 	0.0709456 	0 -0.00305838 	0.0714447 	0 -0.00316537 	0.0719259 	0 -0.00349553 	0.0699457 	0 -0.00324688 	0.0720145 	0 -0.00349418 	0.0726491 	0 -0.00373729 	0.0732366 	0 -0.00400407 	0.0733935 	0 -0.00446277 	0.0707683 	0 -0.00422903 	0.0731749 	0 -0.00450581 	0.0744258 	0 -0.00495714 	0.0751834 	0 -0.00546725 	0.0743044 	0 -0.00606538 	0.071005 	0 -0.00588178 	0.0740149 	0 -0.00604241 	0.076407 	0 -0.00680221 	0.0774805 	0 -0.00756715 	0.074418 	0 -0.00830279 	0.0698578 	0 -0.00824111 	0.0740875 	0 -0.00820007 	0.0784948 	0 -0.00907132 	0.0787339 	0 -0.00990204 	0.0723775 	0 -0.0106375 	0.0654722 	0 -0.0108473 	0.0722242 	0 -0.0111105 	0.0793145 	0 -0.0105601 	0.0756549 	0 -0.0110291 	0.065374 	0 -0.0113021 	0.0543008 	0 -0.0120259 	0.0664602 	0 -0.0115051 	0.0667684 	0 -0.00999754 	0.0580195 	0 -0.00848999 	0.0492706 	0 -0.00719363 	0.03122 	0 -0.00789874 	0.0461851 	0 -0.00641618 	0.0375163 	0 -0.00493362 	0.0288476 	0 -0.00345106 	0.0201789 	0 0 	0 	0