# vtk DataFile Version 2.0
track0
ASCII
DATASET POLYDATA
POINTS 35751 float
0.05 8.57988e-20 2.57396e-18
0.05 0.00217391 -1.05592e-17
0.05 0.00217391 -1.05592e-17
0.05 0.00217391 -1.05592e-17
0.05 0.00217391 -1.05592e-17
0.05 0.00217391 -1.05592e-17
0.05 0.00217391 -1.38778e-17
0.0493333 0.00217607 -6.66134e-18
0.0486667 0.00217902 -7.49401e-18
0.048 0.00218334 -3.85799e-18
0.0473334 0.00219068 -6.42377e-18
0.0466667 0.00220061 -6.93889e-18
0.046 0.00221309 -7.35523e-18
0.0453333 0.00222483 -4.71843e-18
0.0446666 0.00223705 -8.19573e-19
0.044 0.00225215 -5.12044e-18
0.0433333 0.00227072 -6.93889e-18
0.0426667 0.0022932 -3.19189e-18
0.0419999 0.00231359 -2.63723e-18
0.0413332 0.00233417 2.03431e-19
0.0406666 0.00235759 -1.84451e-18
0.04 0.00238493 -1.249e-17
0.0393333 0.00241746 -7.35523e-18
0.0386665 0.00244677 -1.26979e-17
0.0379997 0.00247678 -1.62067e-17
0.0373331 0.0025097 -1.46686e-17
0.0366667 0.00254641 -1.80411e-17
0.036 0.00258948 -1.91513e-17
0.0353331 0.00262842 -1.99815e-17
0.0346663 0.00266959 -1.62115e-17
0.0339997 0.00271389 -2.41641e-17
0.0333333 0.00276143 -3.19189e-17
0.0326667 0.00281611 -2.38698e-17
0.0319997 0.00286765 -2.20653e-17
0.0313331 0.00292255 -3.24646e-17
0.0306667 0.00298096 -2.7579e-17
0.03 0.00304308 -3.19189e-17
0.0294322 0.00310113 -3.51367e-17
0.0288644 0.00315887 -4.18239e-17
0.0282969 0.00321943 -4.04959e-17
0.0277297 0.00328291 -3.71714e-17
0.0272999 0.00333333 -3.72759e-17
0.0271733 0.00334873 -3.62045e-17
0.0270467 0.00336428 -4.20719e-17
0.02692 0.00338 -3.68371e-17
0.0267934 0.00339587 -3.57656e-17
0.0266667 0.00341194 -3.58859e-17
0.026 0.00349897 -3.84441e-17
0.0253338 0.00358935 -3.54427e-17
0.0246682 0.0036845 -3.62236e-17
0.0240034 0.00378462 -3.37287e-17
0.0233333 0.00389085 -3.42351e-17
0.0226667 0.00401499 -3.9993e-17
0.0219994 0.00413585 -4.29698e-17
0.0213332 0.00426234 -4.45461e-17
0.0206681 0.00439493 -4.05346e-17
0.02 0.00454401 -3.95057e-17
0.0193333 0.00472021 -3.98785e-17
0.0186665 0.00489567 -4.66625e-17
0.0179994 0.00507033 -4.78761e-17
0.0173357 0.00525738 -4.3419e-17
0.0166667 0.00547541 -5.13478e-17
0.0160302 0.00571366 -4.62885e-17
0.0153946 0.00595432 -4.30762e-17
0.0147638 0.00620726 -4.33653e-17
0.014141 0.00647906 -4.73455e-17
0.0137463 0.00666667 -4.23211e-17
0.0136637 0.00670816 -4.91224e-17
0.0135813 0.0067501 -4.75975e-17
0.0134992 0.00679249 -4.74607e-17
0.0134173 0.00683533 -5.58038e-17
0.0133333 0.00688003 -6.14176e-17
0.0126667 0.00724188 -6.06324e-17
0.0120128 0.00762635 -5.64155e-17
0.0113745 0.00803615 -5.78001e-17
0.0107535 0.00847178 -5.65531e-17
0.01 0.00906247 -4.996e-17
0.00979147 0.00924997 -5.08269e-17
0.00958507 0.00943981 -5.16991e-17
0.00938082 0.00963198 -5.42823e-17
0.00917879 0.00982647 -5.13175e-17
0.00900266 0.01 -5.41234e-17
0.00853546 0.0104698 -6.40521e-17
0.00809134 0.0109614 -6.23607e-17
0.00767167 0.0114741 -6.44445e-17
0.00727516 0.0120048 -6.02377e-17
0.00666667 0.0128904 -5.55112e-17
0.00661341 0.012979 -5.14365e-17
0.00656051 0.0130678 -5.43002e-17
0.00650799 0.0131568 -5.43876e-17
0.00645584 0.0132461 -5.51601e-17
0.00640503 0.0133333 -5.68989e-17
0.00601784 0.014 -5.52336e-17
0.00566697 0.0146865 -5.46421e-17
0.00534619 0.0153875 -5.22178e-17
0.00505186 0.0161001 -5.68127e-17
0.00481987 0.0166667 -4.55528e-17
0.00454865 0.0173333 -4.34547e-17
0.0043158 0.0180144 -4.73516e-17
0.00410921 0.0187038 -4.29064e-17
0.00391288 0.0193962 -5.36416e-17
0.00375086 0.02 -5.41319e-17
0.00366735 0.0203046 -5.0522e-17
0.00359143 0.0206112 -5.42293e-17
0.00351785 0.0209183 -5.84525e-17
0.00344613 0.0212259 -6.19841e-17
0.00333333 0.021723 -6.245e-17
0.00326337 0.0220451 -5.9791e-17
0.00319515 0.0223675 -6.26802e-17
0.00312864 0.0226903 -6.27909e-17
0.00306378 0.0230134 -6.42867e-17
0.00300121 0.0233333 -6.80012e-17
0.00286726 0.024 -6.70297e-17
0.00274678 0.0246692 -6.01645e-17
0.00263345 0.0253397 -5.51506e-17
0.00252675 0.0260113 -6.23832e-17
0.00242547 0.0266667 -6.80012e-17
0.00231155 0.0273333 -6.00908e-17
0.00221558 0.0280028 -5.84184e-17
0.0021328 0.0286741 -5.57757e-17
0.00205533 0.0293459 -6.24034e-17
0.00197077 0.03 -6.245e-17
0.00187221 0.0306667 -6.4948e-17
0.00179273 0.0313359 -6.294e-17
0.00173142 0.032007 -6.48564e-17
0.00167217 0.0326783 -6.59829e-17
0.00160105 0.0333333 -5.75443e-17
0.00151473 0.034 -5.50338e-17
0.00144886 0.034669 -5.1947e-17
0.00140193 0.0353396 -4.8968e-17
0.00135607 0.0360103 -4.60193e-17
0.00129644 0.0366667 -4.37924e-17
0.0012202 0.0373333 -4.50532e-17
0.00116606 0.0380022 -4.96779e-17
0.0011273 0.038672 -4.77486e-17
0.00108853 0.0393419 -5.27126e-17
0.0010392 0.04 -4.75273e-17
0.000971486 0.0406667 -4.67207e-17
0.00092797 0.0413353 -4.96286e-17
0.000893739 0.0420046 -4.74003e-17
0.000859508 0.0426738 -4.71984e-17
0.000819876 0.0433333 -4.57743e-17
0.000759518 0.044 -4.22043e-17
0.000726045 0.0446686 -4.40883e-17
0.000695723 0.0453373 -4.42767e-17
0.000665402 0.046006 -4.26338e-17
0.000635285 0.0466667 -4.75486e-17
0.00058133 0.0473333 -4.6175e-17
0.000554398 0.0480016 -5.21296e-17
0.000527466 0.0486699 -5.88473e-17
0.000500533 0.0493382 -6.20419e-17
0.000473865 0.05 -6.60147e-17
0.000425462 0.0506667 -7.10689e-17
0.000401429 0.0513347 -7.06104e-17
0.000377397 0.0520026 -7.37648e-17
0.000353365 0.0526706 -7.10609e-17
0.000329523 0.0533333 -6.29988e-17
0.000285812 0.054 -6.14689e-17
0.000264151 0.0546677 -5.78921e-17
0.000242491 0.0553355 -5.74576e-17
0.00022083 0.0560032 -5.30185e-17
0.000199309 0.0566667 -4.33531e-17
0.000159447 0.0573312 -4.53025e-17
0.000139576 0.0579967 -4.65898e-17
0.000119705 0.0586621 -4.87728e-17
9.98342e-05 0.0593275 -4.12074e-17
7.97538e-05 0.06 -3.76028e-17
6.3803e-05 0.0602838 -3.62364e-17
5.56859e-05 0.0605678 -4.18213e-17
4.75688e-05 0.0608519 -3.68244e-17
3.94516e-05 0.061136 -3.00928e-17
0 0.0625168 -2.77835e-17
0.05 0.00434783 5.94331e-18
0.0493333 0.00435024 5.2454e-18
0.0486667 0.0043554 -3.14311e-19
0.0480001 0.00436275 -1.38864e-19
0.0473334 0.00437171 2.35357e-18
0.0466667 0.00438358 5.88377e-18
0.046 0.0043995 6.55115e-18
0.0453334 0.00441682 9.99174e-18
0.0446668 0.00443561 7.49474e-18
0.0440002 0.00445597 2.12515e-18
0.0433333 0.00448025 -1.03362e-18
0.0426667 0.00450976 4.71406e-18
0.042 0.00453953 6.64707e-18
0.0413334 0.00456982 4.71837e-18
0.0406668 0.0046017 3.2351e-18
0.04 0.00463922 -7.72585e-18
0.0393333 0.00468322 -5.71747e-18
0.0386666 0.00472656 -1.06469e-17
0.0379999 0.00476921 -8.06895e-18
0.0373333 0.00481414 -9.05241e-18
0.0366667 0.00486659 -2.83027e-18
0.036 0.00492691 -8.89739e-18
0.0353332 0.00498587 -1.45823e-17
0.0346663 0.00504346 -1.71445e-17
0.0339997 0.0051047 -2.07264e-17
0.0333333 0.00517486 -1.80411e-17
0.0326667 0.00525443 -1.91513e-17
0.0319998 0.00533225 -1.50569e-17
0.0313327 0.00540829 -1.78799e-17
0.0306663 0.00549031 -1.81638e-17
0.03 0.00558237 -1.38778e-17
0.0293333 0.00568555 -1.29063e-17
0.0286664 0.00578693 -1.37386e-17
0.028 0.00589168 -8.78467e-18
0.0273347 0.00600367 -7.33703e-18
0.0266667 0.00612408 -6.93889e-18
0.0261234 0.0062326 -1.15852e-17
0.0255801 0.00634124 -1.62316e-17
0.0250379 0.00645541 -1.15123e-17
0.024497 0.00657537 -1.62552e-17
0.0241061 0.00666667 -9.61363e-18
0.0239516 0.00670414 -6.58068e-18
0.0237971 0.00674216 -6.32351e-18
0.0236429 0.00678073 -1.71688e-17
0.0234887 0.00681985 -1.27488e-17
0.0233333 0.00685989 -1.70956e-18
0.0226667 0.0070364 -3.39129e-18
0.0220025 0.00722213 -3.70059e-18
0.0213415 0.00741871 -6.01649e-18
0.0206839 0.00762666 -9.60168e-18
0.02 0.00785964 -9.50995e-18
0.0193333 0.00811204 -9.92029e-18
0.0186708 0.00837511 -7.41772e-18
0.0180129 0.00864947 -7.46537e-18
0.0173624 0.00894102 -6.56311e-18
0.0166667 0.00928188 -5.55112e-18
0.0164 0.0094255 -7.38298e-18
0.0161345 0.00957129 -5.01559e-19
0.0158704 0.00971951 3.40777e-18
0.0156081 0.00987093 3.15072e-18
0.0153907 0.01 0
0.0149793 0.0102503 -6.15987e-19
0.0145739 0.0105103 3.13823e-18
0.014175 0.0107802 -7.07783e-19
0.013783 0.01106 5.17977e-18
0.0133333 0.0114009 7.0345e-18
0.0128587 0.0117874 1.58628e-17
0.0123946 0.0121866 6.76344e-18
0.0119418 0.0125985 -4.58152e-19
0.0115008 0.013023 7.53371e-18
0.0111965 0.0133333 8.86128e-18
0.0109572 0.0135874 7.08902e-18
0.0107236 0.0138467 1.21988e-17
0.0104957 0.014111 1.19187e-17
0.0102735 0.0143801 1.37778e-17
0.01 0.0147255 1.55801e-17
0.00970817 0.0151137 2.31063e-17
0.0094252 0.0155084 1.84717e-17
0.00915103 0.0159093 2.77816e-17
0.00888524 0.0163159 3.03059e-17
0.00866352 0.0166667 3.60822e-17
0.00826415 0.0173169 3.23533e-17
0.00789451 0.0179846 3.12603e-17
0.007553 0.018667 3.03238e-17
0.00723094 0.0193589 2.75418e-17
0.00695305 0.02 3.40221e-17
0.00689578 0.0201391 3.3879e-17
0.0068397 0.0202786 3.19212e-17
0.00678458 0.0204185 3.69298e-17
0.00673023 0.0205587 3.82946e-17
0.00666667 0.0207254 3.9282e-17
0.00647142 0.021247 4.0238e-17
0.00628544 0.0217719 4.51618e-17
0.00610826 0.0222999 4.3479e-17
0.00593938 0.0228307 4.28445e-17
0.00578459 0.0233333 3.60822e-17
0.00557784 0.024 3.91354e-17
0.00539278 0.024673 4.1484e-17
0.00522725 0.0253511 4.16019e-17
0.00507037 0.0260312 4.04753e-17
0.00491977 0.0266667 4.65504e-17
0.00475802 0.0273333 4.60596e-17
0.00461657 0.0280046 4.6495e-17
0.004493 0.0286794 4.93837e-17
0.00437333 0.0293549 4.95768e-17
0.00425615 0.03 4.9811e-17
0.00412974 0.0306667 5.07154e-17
0.00402201 0.0313366 4.61818e-17
0.00392011 0.0320075 5.21681e-17
0.00382159 0.0326788 5.105e-17
0.00372876 0.0333333 4.23626e-17
0.00364968 0.0338705 4.51236e-17
0.00357857 0.0344088 4.37099e-17
0.00350947 0.0349473 4.12524e-17
0.00344231 0.0354861 5.33138e-17
0.00333333 0.036386 4.30211e-17
0.00332685 0.0364421 4.16226e-17
0.00332039 0.0364982 4.43874e-17
0.00331395 0.0365544 4.43766e-17
0.00330752 0.0366105 4.43659e-17
0.00330112 0.0366667 4.30211e-17
0.00322488 0.0373333 4.32987e-17
0.00315175 0.0380003 4.73921e-17
0.00308128 0.0386676 4.5377e-17
0.00301337 0.0393352 4.11005e-17
0.0029482 0.04 4.30211e-17
0.00288049 0.0406667 4.46865e-17
0.0028194 0.041334 5.1208e-17
0.00276068 0.0420015 4.90064e-17
0.00270424 0.0426692 5.23818e-17
[...]
POINT_DATA 35751
 FIELD attributes 1
U 3 35751 float
-5.52656e-19 	-9.94641e-22 	0
-0.0129418 	4.18501e-05 	0 -0.0129418 	4.18501e-05 	0 -0.0129418 	4.18501e-05 	0 -0.0129418 	4.18501e-05 	0 -0.0129418 	4.18501e-05 	0 -0.0129418 	4.18501e-05 	0 -0.0132563 	5.87382e-05 	0 -0.0134775 	8.72921e-05 	-7.58371e-25 -0.0134372 	0.000147889 	-3.60078e-24 -0.0131979 	0.000196711 	-6.45586e-24 -0.0128908 	0.00024119 	-9.32233e-24 -0.0131983 	0.000232441 	3.59566e-22 -0.0133706 	0.000245038 	6.03482e-22 -0.0132813 	0.000300955 	5.94999e-22 -0.0130615 	0.000363748 	3.55523e-22 -0.0127778 	0.000430804 	-1.52023e-23 -0.013067 	0.000399733 	2.01237e-22 -0.0131584 	0.00040616 	3.34888e-22 -0.0130293 	0.000457764 	3.69871e-22 -0.0128391 	0.000526631 	3.03635e-22 -0.0125882 	0.000614204 	1.29101e-22 -0.0128499 	0.000564801 	9.47741e-23 -0.0128342 	0.000577666 	9.30712e-23 -0.0126764 	0.000625999 	1.0975e-22 -0.0125112 	0.000689111 	1.35308e-22 -0.0123 	0.000794672 	1.86922e-22 -0.0125274 	0.000731355 	1.41146e-22 -0.012386 	0.000764885 	1.06087e-22 -0.0122114 	0.000811511 	7.25951e-23 -0.0120503 	0.000859591 	3.93981e-23 -0.0118865 	0.000975025 	4.84887e-23 -0.011998 	0.000927163 	-1.11245e-23 -0.011805 	0.000972195 	-1.56841e-23 -0.011625 	0.00101896 	-1.98545e-23 -0.0114584 	0.00106754 	-2.36189e-23 -0.0113262 	0.00115805 	5.71294e-24 -0.0112973 	0.00114886 	-2.82541e-23 -0.0111355 	0.00118828 	-2.01998e-23 -0.0109831 	0.00122924 	-1.17315e-23 -0.0108404 	0.0012718 	-2.83422e-24 -0.0107399 	0.00130532 	4.24873e-24 -0.0107124 	0.00131571 	6.46127e-24 -0.0106854 	0.00132619 	8.6978e-24 -0.0106589 	0.00133676 	1.09585e-23 -0.0106331 	0.00134742 	1.32434e-23 -0.0105778 	0.00138087 	5.19038e-24 -0.01038 	0.00140815 	4.30944e-24 -0.0102066 	0.00145919 	5.1474e-24 -0.0100465 	0.00151296 	5.9647e-24 -0.0099005 	0.00156959 	6.76042e-24 -0.00958598 	0.001785 	3.54838e-23 -0.00930668 	0.00168577 	2.67846e-22 -0.00915084 	0.0017374 	3.21104e-22 -0.00901143 	0.00179656 	3.71464e-22 -0.00878227 	0.00195959 	3.08846e-22 -0.00847508 	0.00223998 	1.28369e-22 -0.00822795 	0.00216493 	3.26625e-22 -0.00797927 	0.00208922 	5.24867e-22 -0.0077274 	0.0021777 	5.36728e-22 -0.00747736 	0.00243686 	3.64349e-22 -0.0072665 	0.00272006 	1.93002e-22 -0.00707537 	0.00267903 	3.58628e-22 -0.00681973 	0.00273477 	3.86195e-22 -0.00654548 	0.00285612 	3.33746e-22 -0.00630273 	0.00299608 	2.78326e-22 -0.00616854 	0.00309884 	2.40676e-22 -0.00613738 	0.00312511 	2.32741e-22 -0.00610695 	0.00315187 	2.2474e-22 -0.00607724 	0.00317911 	2.16672e-22 -0.00603776 	0.00321354 	2.15919e-22 -0.00599296 	0.0032529 	2.18672e-22 -0.00566628 	0.00333164 	1.49313e-22 -0.00542964 	0.00348579 	8.45753e-23 -0.00522301 	0.00366405 	1.79329e-23 -0.0049773 	0.00390193 	2.31139e-23 -0.0047185 	0.00424283 	2.79708e-23 -0.00465896 	0.00428507 	1.61553e-23 -0.00460274 	0.00433043 	4.33353e-24 -0.00454792 	0.00437829 	2.5096e-23 -0.00449536 	0.00442897 	6.47173e-23 -0.00445205 	0.00447646 	9.96564e-23 -0.00419612 	0.00464504 	9.94005e-23 -0.00396722 	0.0048463 	9.46528e-23 -0.00377171 	0.00504892 	8.53946e-23 -0.0036074 	0.00525025 	7.2045e-23 -0.00337877 	0.00561912 	4.44631e-23 -0.00336304 	0.00564636 	7.28689e-23 -0.00334771 	0.00567412 	1.00993e-22 -0.00333276 	0.0057024 	1.28836e-22 -0.00333234 	0.0057223 	6.99844e-23 -0.00333405 	0.0057407 	2.51145e-25 -0.003012 	0.00589292 	-5.20572e-22 -0.00283725 	0.00620037 	-8.46783e-22 -0.00270795 	0.0065559 	-1.13328e-21 -0.00278273 	0.00679651 	-8.94792e-22 -0.00284412 	0.00699083 	-7.04874e-22 -0.0024949 	0.00729692 	-4.69276e-22 -0.00226803 	0.00756879 	-2.72543e-22 -0.00219306 	0.00773472 	-1.41364e-22 -0.00212554 	0.00792088 	-6.58309e-24 -0.00225586 	0.00822855 	-5.27651e-24 -0.00209606 	0.00846428 	-3.71843e-25 -0.00205236 	0.00856643 	0 -0.00201964 	0.00866224 	0 -0.00198851 	0.00876311 	0 -0.00194077 	0.00893383 	0 -0.00191296 	0.00904254 	0 -0.00188662 	0.00915619 	0 -0.00186172 	0.00927462 	0 -0.00183819 	0.00939769 	0 -0.00188068 	0.00936028 	0 -0.00170547 	0.00947303 	0 -0.00164819 	0.00975156 	0 -0.00159776 	0.0100562 	0 -0.00158875 	0.0102807 	0 -0.001724 	0.0100891 	0 -0.00146475 	0.0102181 	0 -0.0012925 	0.0104807 	0 -0.00125624 	0.0108952 	0 -0.00139247 	0.0107696 	0 -0.00155054 	0.0104882 	0 -0.00127298 	0.0107183 	0 -0.00100967 	0.0110529 	0 -0.000991385 	0.0112308 	0 -0.0011871 	0.0109335 	0 -0.00136672 	0.0105557 	0 -0.00107323 	0.0108999 	0 -0.000796431 	0.0113822 	0 -0.000763437 	0.0111633 	0 -0.000980713 	0.0107955 	0 -0.00117996 	0.0103182 	0 -0.000873138 	0.0107875 	0 -0.000646009 	0.0111628 	0 -0.000624532 	0.0107917 	0 -0.000775693 	0.0103475 	0 -0.000992493 	0.00977182 	0 -0.000675211 	0.0103753 	0 -0.000534636 	0.0104522 	0 -0.000514914 	0.0100667 	0 -0.000577472 	0.00961008 	0 -0.000809711 	0.00894351 	0 -0.000485039 	0.00968754 	0 -0.000428372 	0.0094473 	0 -0.000410482 	0.00905276 	0 -0.000394559 	0.0086556 	0 -0.000640424 	0.00791309 	0 -0.000346633 	0.00860149 	0 -0.000330574 	0.008203 	0 -0.000314515 	0.00780451 	0 -0.000298456 	0.00740601 	0 -0.000482669 	0.00664781 	0 -0.000254048 	0.00706141 	0 -0.000239698 	0.00666255 	0 -0.000225348 	0.00626369 	0 -0.000210998 	0.00586482 	0 -0.00033735 	0.00514519 	2.56807e-37 -0.00017062 	0.00525978 	0 -0.00015769 	0.00486116 	0 -0.000144759 	0.00446254 	0 -0.000131828 	0.00406392 	0 -0.000205708 	0.0034294 	2.58534e-40 -9.62562e-05 	0.00322344 	0 -8.42603e-05 	0.00282172 	0 -7.22644e-05 	0.00242 	0 -6.02686e-05 	0.00201828 	0 -8.43494e-05 	0.00150054 	-6.20509e-38 -4.02216e-05 	0.0014077 	0 -3.51045e-05 	0.00122861 	0 -2.99875e-05 	0.00104952 	0 -2.48704e-05 	0.000870429 	0 0 	0 	0
-0.0250963 	9.10003e-05 	0 -0.0252925 	0.000195803 	0 -0.0253874 	0.000279897 	-1.31852e-24 -0.0253646 	0.000340813 	-4.11139e-24 -0.0251875 	0.000448286 	-3.3981e-23 -0.0248919 	0.000594393 	-8.62169e-23 -0.0250155 	0.000650202 	-4.24607e-22 -0.0250729 	0.000706719 	-6.37302e-22 -0.0250207 	0.000764194 	-6.49691e-22 -0.0247629 	0.000901477 	-4.51643e-22 -0.0244156 	0.00108069 	-1.46666e-22 -0.0244684 	0.00109257 	-2.93898e-22 -0.0244957 	0.0011131 	-4.05956e-22 -0.0244189 	0.00116811 	-3.77078e-22 -0.0240604 	0.00135361 	-1.74888e-22 -0.0236811 	0.00156317 	5.48709e-23 -0.0236694 	0.00153836 	3.44385e-22 -0.0236545 	0.00151318 	6.33983e-22 -0.0235183 	0.00158508 	6.45021e-22 -0.0230951 	0.00181724 	3.89057e-22 -0.0227044 	0.00205436 	1.32546e-22 -0.0226377 	0.00200183 	1.687e-22 -0.022565 	0.00194839 	2.04961e-22 -0.0223034 	0.00204905 	1.89192e-22 -0.0218858 	0.00230444 	1.19382e-22 -0.0215031 	0.00256651 	4.9548e-23 -0.021393 	0.00249643 	9.63166e-23 -0.0212759 	0.00242499 	1.43108e-22 -0.0208366 	0.00256464 	1.5156e-22 -0.020442 	0.00282425 	1.1554e-22 -0.0200851 	0.00310862 	7.33972e-23 -0.0199441 	0.00303182 	1.55982e-22 -0.019624 	0.00308444 	1.78689e-22 -0.019195 	0.00323149 	1.5959e-22 -0.0187894 	0.00338651 	1.39767e-22 -0.0184727 	0.00368959 	5.39403e-23 -0.0183075 	0.00366084 	5.0369e-23 -0.0179656 	0.00378335 	7.40001e-23 -0.0176393 	0.00391212 	9.7974e-23 -0.0173295 	0.00404743 	1.22305e-22 -0.0171175 	0.00415041 	1.40201e-22 -0.0170374 	0.00419452 	1.42268e-22 -0.0169588 	0.00423927 	1.44293e-22 -0.0168818 	0.00428467 	1.46277e-22 -0.0168065 	0.00433073 	1.48218e-22 -0.016676 	0.00441534 	1.53827e-22 -0.0162526 	0.00454488 	1.40995e-22 -0.0158916 	0.00472597 	1.45239e-22 -0.0155568 	0.00491983 	1.47764e-22 -0.0151838 	0.00517242 	1.62002e-22 -0.0146803 	0.00555795 	2.05245e-22 -0.0142709 	0.00566659 	1.17113e-22 -0.0138867 	0.00579079 	2.83547e-23 -0.0134143 	0.00601205 	3.76526e-25 -0.0130174 	0.00637787 	3.16629e-23 -0.0126341 	0.00680464 	6.25907e-23 -0.0125095 	0.00686912 	2.68303e-23 -0.0123765 	0.00694492 	0 -0.0122103 	0.00704873 	0 -0.0120508 	0.00715732 	0 -0.0119233 	0.007252 	0 -0.0116453 	0.00747045 	0 -0.0113865 	0.00770492 	0 -0.0111475 	0.00795565 	0 -0.0108569 	0.00823145 	0 -0.0105352 	0.00857766 	0 -0.0102355 	0.00880655 	0 -0.00996401 	0.0090612 	0 -0.00968126 	0.0093211 	0 -0.0094157 	0.00960102 	0 -0.00924865 	0.00981862 	0 -0.00905637 	0.0100521 	0 -0.0088761 	0.010298 	0 -0.00869497 	0.0105292 	-6.12983e-24 -0.00851589 	0.0107521 	-1.68114e-23 -0.00830417 	0.0110477 	-3.02648e-23 -0.00809949 	0.0112987 	-3.23609e-23 -0.00791226 	0.0115696 	-3.47908e-23 -0.00774611 	0.0118467 	-5.00699e-23 -0.00762102 	0.0120588 	-1.45e-22 -0.0075244 	0.0122517 	-2.26043e-22 -0.00707552 	0.0127793 	-3.60386e-22 -0.00668143 	0.0133516 	-4.70253e-22 -0.00640623 	0.0137619 	-3.3606e-22 -0.00616099 	0.0142146 	-2.03525e-22 -0.00606688 	0.0147284 	-7.90404e-23 -0.00598784 	0.0149 	-2.33396e-23 -0.00592342 	0.0150378 	9.0696e-25 -0.00587127 	0.0151469 	-1.51379e-24 -0.00582045 	0.015258 	-3.79072e-24 -0.00576175 	0.0153922 	-6.32303e-24 -0.00558827 	0.0157746 	1.47197e-23 -0.00543077 	0.0161841 	3.61524e-23 -0.00528837 	0.0166188 	5.79468e-23 -0.00522882 	0.0169806 	7.72363e-23 -0.00531675 	0.0171439 	9.0011e-23 -0.00485646 	0.0176615 	5.79388e-23 -0.00445813 	0.018262 	5.45161e-23 -0.00436845 	0.0189393 	2.46891e-22 -0.00455648 	0.0192256 	4.70269e-22 -0.00472617 	0.0194789 	6.7725e-22 -0.00425456 	0.0201904 	3.23597e-22 -0.00383465 	0.0209408 	0 -0.0037546 	0.0211935 	0 -0.00390629 	0.0215057 	3.36546e-25 -0.00413499 	0.0218075 	7.86497e-25 -0.00365536 	0.0227314 	1.10576e-25 -0.00351313 	0.023129 	0 -0.00343945 	0.0234357 	0 -0.00336973 	0.0237612 	0 -0.00354724 	0.0240939 	-1.63507e-22 -0.00327155 	0.0247673 	0 -0.00321303 	0.0250402 	0 -0.00315702 	0.0253265 	0 -0.00310345 	0.0256257 	0 -0.00301798 	0.0261462 	0 -0.00301312 	0.0261801 	0 -0.00300828 	0.0262142 	0 -0.00300347 	0.0262485 	0 -0.00299867 	0.0262828 	0 -0.00300453 	0.0262732 	0 -0.00292158 	0.0266477 	0 -0.00285564 	0.0270415 	0 -0.00279321 	0.0274565 	0 -0.00273414 	0.0278917 	0 -0.0028157 	0.0277226 	0 -0.0025864 	0.0282502 	0 -0.00252463 	0.0287018 	0 -0.00246612 	0.0291753 	0 -0.00241072 	0.0296696 	0 -0.00261742 	0.0289103 	0 -0.00229275 	0.0296543 	0 -0.0022018 	0.0301956 	0 -0.00214705 	0.0307249 	0 -0.00218518 	0.0307988 	0 -0.00241526 	0.0298429 	0 -0.00208632 	0.0307311 	0 -0.00189138 	0.0315004 	0 -0.00184104 	0.0320819 	0 -0.00197903 	0.0316285 	0 -0.0022171 	0.0305362 	0 -0.00188682 	0.0315693 	0 -0.00160294 	0.0326359 	6.93187e-38 -0.001559 	0.0332665 	5.64057e-37 -0.00178904 	0.0322604 	1.06002e-36 -0.00203468 	0.0310325 	1.54889e-36 -0.00170541 	0.0322093 	9.95275e-37 -0.00138451 	0.0335183 	4.47806e-37 -0.00136165 	0.0339567 	7.11992e-40 -0.00162451 	0.0326973 	1.5432e-39 -0.00187955 	0.0313344 	2.36222e-39 -0.00155266 	0.0326529 	1.44558e-39 -0.00123412 	0.034115 	5.39091e-40 -0.00121994 	0.0343268 	-3.05845e-37 -0.00149783 	0.0329449 	-8.06682e-37 -0.00176759 	0.0314446 	-1.30031e-36 -0.00144315 	0.0329053 	-7.5247e-37 -0.00112721 	0.0345219 	-2.10701e-37 -0.00112108 	0.0345213 	0 -0.0014252 	0.0330135 	0 -0.00172019 	0.0313657 	0 -0.00139677 	0.0329764 	0 -0.0010825 	0.0347586 	0 -0.00107577 	0.0345297 	0 -0.00142525 	0.0328817 	0 -0.00176323 	0.0310596 	0 -0.00143859 	0.0328457 	0 -0.00112617 	0.034811 	0 -0.00110789 	0.034246 	0 -0.00151589 	0.0324604 	0 -0.00192383 	0.0304047 	0 -0.00159715 	0.0324285 	0 -0.0013447 	0.0339815 	0 -0.00131462 	0.0332214 	0 -0.00169396 	0.0314462 	0 -0.00220855 	0.029039 	0 -0.00188646 	0.0314385 	0 -0.00169521 	0.0322558 	0 -0.00163582 	0.0311256 	0 -0.00189306 	0.0293095 	0 -0.00255598 	0.0263349 	0 -0.00226597 	0.0294046 	0 -0.00210146 	0.028669 	0 -0.00196821 	0.0268512 	0 -0.00185331 	0.0249951 	0 -0.00269998 	0.0211246 	0 -0.00248187 	0.0241053 	0 -0.00216548 	0.0210324 	0 -0.00184909 	0.0179594 	0 -0.0015327 	0.0148865 	0 -0.0017615 	0.0105072 	0 -0.00167307 	0.012022 	0 -0.00132438 	0.00951639 	0 -0.000975676 	0.00701079 	0 -0.000626977 	0.00450519 	0 0 	0 	0
-0.0363509 	0.000148493 	0 -0.0363184 	0.000318805 	-3.82245e-23 -0.0362372 	0.000507685 	-8.72384e-23 -0.0361725 	0.000697082 	-1.36503e-22 -0.0361245 	0.000886993 	-1.8602e-22 -0.0360568 	0.001071 	-2.36231e-22 -0.0359259 	0.00122814 	-3.01661e-22 -0.0357629 	0.00140347 	-3.20575e-22 -0.0356153 	0.00158007 	-3.38169e-22 -0.0354833 	0.00175796 	-3.54428e-22 -0.0354809 	0.0017618 	-3.54747e-22 -0.0354583 	0.0017994 	-3.59261e-22 -0.0354365 	0.00183706 	-3.63746e-22 -0.0354154 	0.00187478 	-3.68202e-22 -0.035395 	0.00191257 	-3.72631e-22 -0.0353612 	0.00195714 	-3.79625e-22 -0.0351251 	0.00212649 	-3.23604e-22 -0.0348988 	0.0022969 	-2.68551e-22 -0.0346889 	0.00246954 	-2.12964e-22 -0.0344957 	0.00264442 	-1.56835e-22 -0.0342137 	0.00287501 	-1.0791e-22 -0.0339502 	0.00303332 	-2.39303e-22 -0.0336743 	0.00320024 	-2.3549e-22 -0.033415 	0.00337022 	-2.3323e-22 -0.0331727 	0.00354333 	-2.32558e-22 -0.0327114 	0.0038462 	8.31003e-23 -0.0324133 	0.00397043 	-8.65382e-23 -0.0321066 	0.00413955 	-9.02641e-23 -0.0318172 	0.00431272 	-9.4617e-23 -0.0314507 	0.00454394 	-5.31716e-23 -0.0308973 	0.00490087 	8.96623e-23 -0.0305526 	0.00501012 	4.63142e-23 -0.0302244 	0.00513683 	1.34596e-23 -0.0299244 	0.00532007 	2.11128e-23 -0.029354 	0.00568348 	3.84304e-23 -0.0288116 	0.00606438 	5.55866e-23 -0.028446 	0.00617505 	2.9981e-23 -0.0280949 	0.00629131 	4.27047e-24 -0.0275315 	0.00655844 	0 -0.026999 	0.00694379 	9.30404e-24 -0.0264948 	0.0073556 	1.88614e-23 -0.0261346 	0.0074835 	2.58626e-24 -0.0255821 	0.00775875 	0 -0.0250206 	0.00807638 	0 -0.0244938 	0.00841227 	0 -0.0240613 	0.00872528 	0 -0.0240468 	0.00873793 	0 -0.0240323 	0.0087506 	0 -0.0240179 	0.00876329 	0 -0.024001 	0.00877731 	0 -0.023979 	0.00879404 	0 -0.0234136 	0.00912512 	0 -0.0228902 	0.00948447 	0 -0.0224037 	0.00986737 	0 -0.0218667 	0.010316 	0 -0.0211991 	0.010897 	0 -0.0206597 	0.0112347 	0 -0.0201412 	0.01161 	0 -0.0195117 	0.0120725 	0 -0.0189374 	0.0125753 	0 -0.0183943 	0.0131468 	0 -0.0183835 	0.0131611 	0 -0.0183727 	0.0131754 	0 -0.0183616 	0.0131898 	0 -0.0183472 	0.0132045 	0 -0.0183327 	0.0132192 	0 -0.0176732 	0.013747 	0 -0.0170826 	0.0143362 	0 -0.0165323 	0.0149722 	2.5914e-24 -0.0159355 	0.0156206 	2.00766e-23 -0.0152281 	0.0165547 	4.33142e-23 -0.0151641 	0.0166417 	4.34246e-23 -0.0151012 	0.0167299 	4.35475e-23 -0.0150364 	0.0168125 	4.21743e-23 -0.0149678 	0.0168861 	3.85054e-23 -0.0149032 	0.0169576 	3.5002e-23 -0.0142252 	0.0176835 	9.80199e-23 -0.0136169 	0.018489 	1.65278e-22 -0.013057 	0.019232 	3.66883e-23 -0.0126182 	0.0200071 	-2.53015e-22 -0.0123561 	0.0206099 	-4.6645e-22 -0.0122487 	0.0208306 	-5.91748e-22 -0.0121442 	0.0210474 	-6.8852e-22 -0.012042 	0.0212163 	-5.8059e-22 -0.0119422 	0.021388 	-4.73609e-22 -0.0118312 	0.0215873 	-3.5256e-22 -0.0115015 	0.0221457 	-1.784e-22 -0.0112003 	0.0227397 	-6.88959e-24 -0.0109264 	0.0233674 	1.6201e-22 -0.0107478 	0.0238221 	1.53308e-22 -0.0106242 	0.0241869 	9.10986e-23 -0.0100946 	0.0250593 	1.23812e-22 -0.00960814 	0.0259986 	1.56577e-22 -0.00928673 	0.0266202 	4.67623e-22 -0.0091587 	0.027257 	1.2047e-21 -0.00909167 	0.0278622 	1.95428e-21 -0.00875515 	0.0286811 	2.6939e-21 -0.0085319 	0.0292392 	2.38789e-21 -0.0083494 	0.0297322 	1.77814e-21 -0.00817742 	0.0302449 	1.1819e-21 -0.00793027 	0.0310562 	2.91575e-22 -0.00788999 	0.0312055 	2.19024e-22 -0.00785038 	0.0313561 	1.46574e-22 -0.00781144 	0.031508 	7.42261e-23 -0.00777378 	0.0316601 	2.60945e-24 -0.00780752 	0.0316852 	2.69629e-24 -0.00746921 	0.0324407 	-1.35578e-22 -0.00725812 	0.0332457 	-3.49246e-22 -0.00706449 	0.034088 	-5.6676e-22 -0.00694395 	0.0348515 	-7.87736e-22 -0.00715637 	0.0349821 	-1.00442e-21 -0.00660284 	0.0359278 	-6.7237e-22 -0.00618207 	0.0369283 	-4.41744e-23 -0.00602646 	0.0379382 	1.25439e-21 -0.00626607 	0.0381433 	2.26116e-21 -0.00651827 	0.0382641 	3.21477e-21 -0.00595546 	0.0394057 	1.85393e-21 -0.00541524 	0.0406325 	5.11387e-22 -0.00530061 	0.0412476 	8.53314e-25 -0.00560285 	0.0413851 	3.2111e-24 -0.00588987 	0.0414862 	5.50195e-24 -0.00532049 	0.0428268 	2.43122e-24 -0.00486312 	0.0440268 	0 -0.00478295 	0.0443691 	0 -0.00496206 	0.0445568 	-3.09531e-21 -0.00527782 	0.0446259 	-7.86267e-21 -0.0047051 	0.0461643 	-1.79999e-21 -0.0044814 	0.0468875 	0 -0.00440457 	0.0472626 	0 -0.0043516 	0.0476344 	-4.75185e-25 -0.00469044 	0.0476578 	-9.50953e-24 -0.00418407 	0.049194 	0 -0.00410939 	0.0495813 	0 -0.00403678 	0.0499856 	0 -0.0039662 	0.0504065 	0 -0.00413832 	0.0505558 	2.22823e-21 -0.00382546 	0.0516641 	2.89776e-37 -0.00375742 	0.0520775 	8.48136e-37 -0.0036912 	0.0525074 	1.40559e-36 -0.00362676 	0.0529535 	1.96215e-36 -0.00363686 	0.0533076 	2.59776e-36 -0.00353673 	0.053745 	2.81609e-36 -0.00350996 	0.053943 	2.46659e-36 -0.00348351 	0.0541443 	2.11831e-36 -0.00345739 	0.0543488 	1.77124e-36 -0.00342591 	0.0546023 	1.34921e-36 -0.00339715 	0.05484 	1.0633e-36 -0.00336879 	0.0550818 	7.77593e-37 -0.00334083 	0.0553275 	4.92082e-37 -0.00331326 	0.0555771 	2.06767e-37 -0.00333121 	0.0555355 	4.18668e-39 -0.0032408 	0.0561238 	-4.02038e-37 -0.0032006 	0.0565875 	-8.91753e-37 -0.00316158 	0.0570638 	-1.38211e-36 -0.00312369 	0.0575522 	-1.87311e-36 -0.00321336 	0.0571641 	-2.36388e-36 -0.00305336 	0.0580919 	-1.81603e-36 -0.00304234 	0.0585912 	-1.26998e-36 -0.00303197 	0.0590978 	-7.24231e-37 -0.00302225 	0.0596115 	-1.78789e-37 -0.00321403 	0.0586043 	0 -0.00298065 	0.0599308 	0 -0.00301773 	0.0604857 	0 -0.00305464 	0.0610386 	0 -0.00309137 	0.0615896 	0 -0.00339898 	0.0598736 	0 -0.00307433 	0.0616597 	0 -0.0031819 	0.0623278 	0 -0.00329557 	0.0629579 	0 -0.00345489 	0.0631211 	0 -0.00385541 	0.0609319 	0 -0.00352873 	0.0629557 	0 -0.0035958 	0.0641387 	0 -0.00383245 	0.0649009 	0 -0.00418489 	0.0642174 	0 -0.00468536 	0.0616051 	0 -0.00436326 	0.0640045 	0 -0.00431372 	0.0659774 	0 -0.00474425 	0.0669682 	0 -0.00534005 	0.0648484 	0 -0.00597057 	0.0615163 	0 -0.00568056 	0.064586 	0 -0.00540777 	0.0678384 	0 -0.00607231 	0.068596 	0 -0.00688312 	0.0643759 	0 -0.00763795 	0.0597593 	0 -0.00745501 	0.0641151 	0 -0.00730508 	0.0687372 	0 -0.00747011 	0.0674817 	0 -0.00834254 	0.0611786 	0 -0.00909519 	0.0542519 	0 -0.00918193 	0.0611818 	0 -0.00912702 	0.0655829 	0 -0.00839281 	0.0603071 	0 -0.00831601 	0.0522327 	0 -0.00865398 	0.0413315 	0 -0.00928027 	0.0536863 	0 -0.00795463 	0.0465782 	0 -0.00646272 	0.0378423 	0 -0.00497081 	0.0291065 	0 -0.00360742 	0.0157554 	0 -0.00394413 	0.0233101 	0 -0.00320708 	0.0189541 	0 -0.00247003 	0.014598 	0 -0.00173298 	0.010242 	0 0 	0 	0