# vtk DataFile Version 2.0
track0
ASCII
DATASET POLYDATA
POINTS 41160 float
0.05 8.57988e-20 2.57396e-18
0.05 0.00217391 -1.05592e-17
0.05 0.00217391 -1.05592e-17
0.05 0.00217391 -1.05592e-17
0.05 0.00217391 -1.05592e-17
0.05 0.00217391 -1.05592e-17
0.05 0.00217391 -1.38778e-17
0.0493333 0.00217503 -6.66134e-18
0.0486667 0.0021772 -5.0654e-18
0.048 0.00218095 -6.11712e-18
0.0473334 0.00218787 -7.11298e-18
0.0466667 0.00219735 -6.93889e-18
0.046 0.00220925 -3.88578e-18
0.0453333 0.00222062 -5.41232e-18
0.0446667 0.0022326 -3.776e-18
0.0440001 0.0022476 -4.45689e-18
0.0433333 0.00226608 -6.93889e-18
0.0426667 0.0022884 -4.57967e-18
0.0419999 0.00230876 1.87309e-18
0.0413332 0.0023294 4.74543e-18
0.0406666 0.00235299 7.18372e-18
0.04 0.00238057 6.93889e-18
0.0393333 0.00241329 1.20737e-17
0.0386665 0.00244288 1.02004e-17
0.0379997 0.00247322 8.07348e-18
0.0373331 0.00250657 1.24244e-17
0.0366667 0.00254379 6.93889e-18
0.036 0.00258736 5.82867e-18
0.0353331 0.00262685 1.57538e-17
0.0346663 0.00266864 1.91673e-17
0.0339997 0.00271362 1.31732e-17
0.0333333 0.00276191 1.80411e-17
0.0326667 0.00281736 1.56819e-17
0.0319998 0.00286972 1.43639e-17
0.0313331 0.0029255 2.16637e-17
0.0306668 0.00298486 1.82243e-17
0.03 0.00304799 1.80411e-17
0.0294499 0.00310506 1.75694e-17
0.0288998 0.00316184 1.77916e-17
0.02835 0.00322129 9.46981e-18
0.0278005 0.00328351 1.84586e-17
0.0273801 0.00333333 1.35782e-17
0.0272374 0.00335084 1.53035e-17
0.0270947 0.00336854 1.63349e-17
0.0269521 0.00338646 2.15297e-17
0.0268095 0.00340458 2.11735e-17
0.0266667 0.00342295 2.79794e-17
0.026 0.00351159 1.98742e-17
0.0253338 0.00360344 3.25936e-17
0.0246682 0.00370012 3.55939e-17
0.0240034 0.0038018 2.94152e-17
0.0233333 0.00390967 2.81836e-17
0.0226667 0.00403605 2.17281e-17
0.0219994 0.00415918 2.91558e-17
0.0213331 0.00428763 2.90067e-17
0.0206681 0.0044222 2.948e-17
0.02 0.004574 2.99305e-17
0.0193333 0.00475306 2.84882e-17
0.0186665 0.0049315 2.5144e-17
0.0179995 0.00510925 2.75081e-17
0.0173359 0.00529962 3.23204e-17
0.0166667 0.00552114 3.60822e-17
0.0160624 0.00575025 4.17551e-17
0.0154589 0.00598157 4.62492e-17
0.0148597 0.00622366 5.00294e-17
0.0142675 0.00648234 4.46176e-17
0.0138775 0.00666667 4.21149e-17
0.0137687 0.00672091 4.09084e-17
0.0136602 0.0067759 4.24768e-17
0.0135522 0.00683166 3.15545e-17
0.0134445 0.00688818 3.09751e-17
0.0133333 0.00694783 2.58996e-17
0.0126667 0.00731487 2.1125e-17
0.0120123 0.00770347 2.39473e-17
0.0113733 0.00811668 2.42679e-17
0.0107514 0.00855541 2.38e-17
0.01 0.00914591 3.60822e-17
0.00980943 0.00931673 3.51705e-17
0.00962049 0.00948936 3.8418e-17
0.00943323 0.0096638 3.7442e-17
0.00924769 0.00984008 4.25297e-17
0.00908268 0.01 4.30211e-17
0.00859948 0.0104767 4.00487e-17
0.00813938 0.0109758 3.59447e-17
0.00770389 0.0114965 3.12959e-17
0.00729203 0.012036 3.72018e-17
0.00666667 0.0129271 3.60822e-17
0.00661671 0.0130084 3.87746e-17
0.00656706 0.0130898 4.14675e-17
0.00651771 0.0131714 3.86097e-17
0.00646866 0.0132532 3.50242e-17
0.00642076 0.0133333 3.60822e-17
0.00602324 0.014 4.88498e-17
0.00566208 0.014687 3.97259e-17
0.0053316 0.0153894 4.10739e-17
0.00502787 0.0161036 3.75396e-17
0.00479096 0.0166667 4.00703e-17
0.00451254 0.0173333 3.72932e-17
0.00427363 0.0180152 3.91201e-17
0.00406078 0.0187056 3.99958e-17
0.00385878 0.0193992 4.20854e-17
0.00369347 0.02 3.94227e-17
0.00362144 0.0202588 4.43057e-17
0.00355512 0.0205191 4.28223e-17
0.00349064 0.0207798 4.40578e-17
0.00342762 0.0210409 3.97404e-17
0.00333333 0.0214412 4.37129e-17
0.00324741 0.0218196 4.28781e-17
0.00316413 0.0221986 4.82905e-17
0.00308339 0.0225782 4.53805e-17
0.0030051 0.0229583 4.24745e-17
0.00293026 0.0233333 3.60822e-17
0.00279277 0.024 3.56659e-17
0.00267076 0.0246697 3.73262e-17
0.00255648 0.0253407 4.14923e-17
0.0024493 0.0260129 3.87312e-17
0.00234643 0.0266667 4.996e-17
0.00223036 0.0273333 5.44009e-17
0.00213316 0.028003 5.74616e-17
0.00205158 0.0286748 5.89277e-17
0.00197571 0.0293472 5.11801e-17
0.00189077 0.03 5.68989e-17
0.00179133 0.0306667 5.50948e-17
0.00171195 0.031336 5.5021e-17
0.00165162 0.0320074 5.46657e-17
0.00159339 0.0326789 5.70748e-17
0.00152299 0.0333333 5.95488e-17
0.00143696 0.034 6.0235e-17
0.00137238 0.0346691 5.94925e-17
0.00132756 0.0353398 6.0545e-17
0.00128367 0.0360105 6.34951e-17
0.00122575 0.0366667 6.70007e-17
0.00115089 0.0373333 6.74723e-17
0.00109906 0.0380022 6.77011e-17
0.00106122 0.038672 6.60494e-17
0.00102338 0.0393418 6.30581e-17
0.000976602 0.04 6.35992e-17
0.000911308 0.0406667 7.55041e-17
0.00087094 0.0413353 7.64073e-17
0.00083825 0.0420044 7.68063e-17
0.000805561 0.0426734 7.70908e-17
0.000769088 0.0433333 8.19859e-17
0.000712123 0.044 8.20808e-17
0.000682347 0.0446684 8.01904e-17
0.000654133 0.0453369 8.51342e-17
0.000625919 0.0460054 8.64496e-17
0.000598013 0.0466667 9.05975e-17
0.000548366 0.0473333 9.46527e-17
0.000524065 0.0480014 9.29434e-17
0.000499764 0.0486695 8.75642e-17
0.000475463 0.0493375 8.78394e-17
0.000451367 0.05 7.97395e-17
0.000408134 0.0506667 8.85545e-17
0.000387218 0.0513344 8.83136e-17
0.000366302 0.0520021 9.03408e-17
0.000345386 0.0526699 8.7841e-17
0.000324605 0.0533333 9.24406e-17
0.000286877 0.054 9.43075e-17
0.000268784 0.0546675 9.19798e-17
0.000250692 0.055335 9.55458e-17
0.000232599 0.0560025 9.54751e-17
0.000214596 0.0566667 9.26238e-17
0.000181354 0.0573333 9.6218e-17
0.00016541 0.0580006 8.93761e-17
0.000149467 0.0586679 9.45056e-17
0.000133523 0.0593352 9.20065e-17
0.000117641 0.06 9.00097e-17
9.41128e-05 0.0605225 9.88988e-17
8.25995e-05 0.0610455 1.04299e-16
7.10862e-05 0.0615684 1.01026e-16
5.95729e-05 0.0620913 1.02682e-16
3.22286e-05 0.0633333 9.98664e-17
2.57829e-05 0.0634843 9.96948e-17
2.24526e-05 0.0636353 9.89978e-17
1.91223e-05 0.0637863 1.04459e-16
1.5792e-05 0.0639374 1.0992e-16
0 0.0646536 1.10445e-16
0.05 0.00434783 5.94331e-18
0.0493333 0.00434874 3.86012e-18
0.0486667 0.00435272 3.84043e-19
0.048 0.00435909 -1.17968e-18
0.0473334 0.00436714 9.58204e-19
0.0466667 0.00437809 -3.82154e-18
0.046 0.00439306 -3.84646e-18
0.0453334 0.00440969 -3.18027e-18
0.0446668 0.00442796 -6.38297e-18
0.0440003 0.00444786 -4.89494e-18
0.0433333 0.00447167 -1.11522e-17
0.0426667 0.00450068 -8.53029e-18
0.042 0.00453015 -3.82371e-18
0.0413334 0.00456033 -2.56751e-18
0.0406669 0.00459215 -1.02416e-18
0.04 0.00462956 3.04552e-18
0.0393333 0.00467348 -1.5379e-18
0.0386666 0.00471685 -3.6918e-18
0.0379999 0.00475968 3.28551e-19
0.0373333 0.0048048 1.3403e-18
0.0366667 0.00485748 2.98527e-18
0.036 0.00491807 -1.78342e-18
0.0353332 0.00497738 -7.08149e-18
0.0346663 0.0050354 -6.8332e-18
0.0339998 0.00509712 -9.41448e-18
0.0333333 0.00516782 -6.93889e-18
0.0326667 0.00524796 -8.74301e-18
0.0319998 0.0053264 -6.38328e-18
0.0313327 0.00540311 -7.80557e-18
0.0306664 0.00548584 -1.19113e-17
0.03 0.00557871 -1.249e-17
0.0293333 0.00568272 -1.63758e-17
0.0286664 0.00578497 -1.82488e-17
0.028 0.00589062 -1.57253e-17
0.0273348 0.00600357 -1.56638e-17
0.0266667 0.00612502 -1.38778e-17
0.0261285 0.00623335 -1.0206e-17
0.0255903 0.00634179 -1.48609e-17
0.0250533 0.00645567 -1.56579e-17
0.0245175 0.00657523 -1.62214e-17
0.0241281 0.00666667 -6.87471e-18
0.0239692 0.0067054 -3.64987e-19
0.0238104 0.00674472 -2.18217e-18
0.0236517 0.00678461 -1.30202e-17
0.0234932 0.00682509 -7.20505e-18
0.0233333 0.00686655 -1.72064e-18
0.0226667 0.00704435 3.53437e-18
0.0220025 0.0072313 -9.40296e-19
0.0213415 0.00742905 -8.12307e-19
0.020684 0.00763812 -3.68455e-18
0.02 0.00787235 -3.58016e-18
0.0193333 0.00812588 2.77775e-18
0.0186708 0.00838993 1.94971e-18
0.0180127 0.0086651 1.86174e-18
0.0173621 0.00895737 8.67521e-18
0.0166667 0.00929841 0
0.0164059 0.00943873 6.5047e-18
0.0161463 0.00958105 -1.90899e-18
0.0158879 0.00972563 -7.84803e-19
0.0156312 0.0098732 1.72434e-18
0.0154166 0.01 0
0.0149999 0.0102518 2.11711e-18
0.0145894 0.0105134 -5.2142e-18
0.0141852 0.0107849 -3.50037e-18
0.0137879 0.0110662 -8.002e-18
0.0133333 0.0114081 -9.57238e-19
0.0128565 0.0117932 -7.94128e-19
0.0123899 0.0121906 -4.34665e-18
0.0119341 0.0126004 -4.60877e-18
0.01149 0.0130227 -9.13819e-18
0.0111812 0.0133333 -1.0068e-17
0.010945 0.0135807 -8.05444e-18
0.0107141 0.013833 -1.58415e-18
0.0104886 0.0140902 -3.71664e-18
0.0102685 0.014352 -7.77135e-18
0.01 0.0146847 -3.1938e-19
0.00969594 0.0150811 -5.06361e-19
0.00940111 0.0154844 1.7782e-18
0.00911546 0.0158943 4.9425e-18
0.00883853 0.0163101 4.7098e-18
0.00860922 0.0166667 6.93889e-18
0.00822071 0.0172889 8.30555e-18
0.00785981 0.0179275 4.25446e-18
0.0075253 0.0185803 5.64771e-18
0.00720929 0.0192423 5.7401e-18
0.00687204 0.02 4.67635e-18
0.00683096 0.0200988 8.73708e-18
0.00679051 0.0201978 2.81202e-18
0.00675056 0.0202971 -5.12365e-19
0.00671102 0.0203965 1.28028e-18
0.00666667 0.0205093 6.82335e-18
0.00644758 0.0210741 4.76479e-18
0.00624009 0.0216433 1.97987e-18
0.00604354 0.0222163 1.73785e-18
0.00585727 0.0227928 5.51125e-18
0.00568865 0.0233333 6.93889e-18
0.0054793 0.024 6.52256e-18
0.00529242 0.0246733 4.70738e-18
0.00512691 0.0253522 4.55914e-18
0.00496928 0.0260329 7.22015e-18
0.00481868 0.0266667 3.18997e-18
0.00465666 0.0273333 8.50985e-18
0.00451565 0.0280048 4.24928e-18
0.00439126 0.0286795 8.09721e-18
0.00427106 0.0293549 4.30374e-18
0.00415534 0.03 6.95776e-18
0.00403058 0.0306667 1.41044e-17
0.00392502 0.0313366 1.51184e-17
0.00382378 0.0320073 1.678e-17
0.00372617 0.0326785 1.98256e-17
0.00363441 0.0333333 2.44786e-17
0.0035742 0.0337553 2.77102e-17
0.00351895 0.034178 2.74653e-17
0.00346505 0.0346008 2.40958e-17
0.00341246 0.0350238 2.09072e-17
0.00333333 0.0356764 1.80411e-17
0.00331023 0.0358745 1.52271e-17
0.00328739 0.0360725 1.65768e-17
0.00326481 0.0362707 1.65392e-17
0.00324248 0.0364688 1.78898e-17
0.00322043 0.0366667 1.11022e-17
0.00314557 0.0373333 1.06859e-17
0.00307489 0.0380005 1.09627e-17
0.00300709 0.0386679 1.33345e-17
0.00294206 0.0393356 1.4614e-17
0.00288001 0.04 1.80411e-17
0.00281472 0.0406667 2.59515e-17
0.00275676 0.041334 2.13707e-17
0.00270139 0.0420016 2.32337e-17
[...]
POINT_DATA 41160
 FIELD attributes 1
U 3 41160 float
-6.44426e-19 	-1.69674e-21 	0
-0.0152186 	2.54989e-05 	0 -0.0152186 	2.54989e-05 	0 -0.0152186 	2.54989e-05 	0 -0.0152186 	2.54989e-05 	0 -0.0152186 	2.54989e-05 	0 -0.0152186 	2.54989e-05 	0 -0.015552 	5.05884e-05 	0 -0.0157893 	8.87922e-05 	-3.92965e-25 -0.0157495 	0.000163483 	-1.87972e-24 -0.0154962 	0.000220434 	-3.37344e-24 -0.0151722 	0.000270901 	-4.87304e-24 -0.0154968 	0.00026407 	1.90876e-22 -0.0156793 	0.00028177 	3.21741e-22 -0.015579 	0.000350612 	3.17892e-22 -0.0153453 	0.000425374 	1.90097e-22 -0.0150501 	0.000503818 	-6.04343e-24 -0.015352 	0.000468993 	3.49594e-23 -0.0154431 	0.000477958 	5.56912e-23 -0.0152934 	0.000541192 	5.15645e-23 -0.0150891 	0.000624223 	2.79113e-23 -0.0148338 	0.000728121 	-1.60486e-23 -0.0151022 	0.000670179 	-1.17749e-23 -0.0150723 	0.000685909 	-2.88082e-23 -0.014887 	0.000744683 	-5.80802e-23 -0.0147032 	0.000821214 	-8.85919e-23 -0.0144958 	0.000947362 	-1.22469e-22 -0.0147229 	0.000871808 	-9.24706e-23 -0.0145525 	0.000911904 	-8.74908e-23 -0.0143466 	0.000968096 	-8.59048e-23 -0.014157 	0.00102607 	-8.4603e-23 -0.0140026 	0.00116455 	-1.11107e-22 -0.0141009 	0.00110709 	-1.94154e-22 -0.0138728 	0.00116089 	-1.55894e-22 -0.0136603 	0.00121679 	-1.17053e-22 -0.0134642 	0.0012749 	-7.76086e-23 -0.013328 	0.00138274 	1.08516e-23 -0.0132812 	0.00137077 	-4.69024e-23 -0.013096 	0.00141606 	-3.34004e-23 -0.0129215 	0.00146308 	-1.92199e-23 -0.012758 	0.00151192 	-4.33685e-24 -0.0126415 	0.00155074 	7.61298e-24 -0.0126048 	0.00156461 	1.18978e-23 -0.0125689 	0.00157861 	1.62355e-23 -0.0125338 	0.00159276 	2.06265e-23 -0.0124995 	0.00160704 	2.50712e-23 -0.0124289 	0.00165261 	9.23293e-24 -0.0121903 	0.00168069 	6.84973e-24 -0.0119868 	0.00174112 	7.77072e-24 -0.0117994 	0.00180485 	8.66082e-24 -0.0116288 	0.001872 	9.51868e-24 -0.0112713 	0.00213654 	5.15945e-23 -0.0109207 	0.00201531 	3.82013e-22 -0.010732 	0.00206892 	4.68937e-22 -0.0105698 	0.00213875 	5.41469e-22 -0.0103063 	0.00234178 	4.40707e-22 -0.00997263 	0.00267866 	1.81842e-22 -0.00966535 	0.00258631 	4.48742e-22 -0.00935645 	0.00249327 	7.15626e-22 -0.0090435 	0.00259464 	7.29832e-22 -0.00877625 	0.00290486 	4.95275e-22 -0.00855608 	0.00324383 	2.61901e-22 -0.0083324 	0.00319413 	4.66606e-22 -0.00805047 	0.00325237 	5.02462e-22 -0.0077525 	0.00338626 	4.35297e-22 -0.00748819 	0.00353968 	3.64758e-22 -0.00733591 	0.00365588 	3.15318e-22 -0.00728822 	0.00369562 	3.01331e-22 -0.00724199 	0.00373632 	2.87198e-22 -0.00719725 	0.00377798 	2.72918e-22 -0.00713902 	0.00383157 	2.71296e-22 -0.007073 	0.00389407 	2.75952e-22 -0.00666877 	0.00396047 	1.83192e-22 -0.00640185 	0.00413933 	9.89575e-23 -0.00616467 	0.0043494 	1.93075e-23 -0.00589525 	0.0046327 	2.62389e-23 -0.0056173 	0.00503498 	3.23306e-23 -0.00555563 	0.00507642 	1.86505e-23 -0.00549708 	0.00512078 	4.96392e-24 -0.00544075 	0.0051691 	3.01142e-23 -0.0053871 	0.00522101 	7.73697e-23 -0.00534187 	0.00527032 	1.19808e-22 -0.0050348 	0.00546129 	1.20653e-22 -0.0047607 	0.0056918 	1.15563e-22 -0.00452659 	0.00593026 	1.04491e-22 -0.0043308 	0.00617086 	8.79206e-23 -0.00406348 	0.0066086 	5.33924e-23 -0.00404671 	0.00663672 	8.84564e-23 -0.00403032 	0.00666536 	1.23219e-22 -0.00401432 	0.00669451 	1.5768e-22 -0.00401459 	0.00671601 	8.41051e-23 -0.00401671 	0.00673637 	3.98848e-25 -0.00363052 	0.00690643 	-6.76061e-22 -0.00341826 	0.00726426 	-1.11773e-21 -0.00326581 	0.00768004 	-1.49628e-21 -0.0033562 	0.00797614 	-1.18618e-21 -0.00343031 	0.00821393 	-9.41381e-22 -0.00300423 	0.00857364 	-6.19139e-22 -0.00273926 	0.00888503 	-3.63517e-22 -0.00264629 	0.0090871 	-1.97323e-22 -0.00256301 	0.00931485 	-2.62218e-23 -0.00269288 	0.00967471 	1.7253e-23 -0.00252726 	0.00991809 	1.40545e-24 -0.00247888 	0.0100254 	0 -0.00244328 	0.0101237 	0 -0.00240921 	0.0102268 	0 -0.00235934 	0.0103918 	0 -0.0023166 	0.0105425 	0 -0.00227659 	0.0107022 	0 -0.00223921 	0.0108706 	0 -0.00220436 	0.0110474 	0 -0.00226749 	0.0109949 	0 -0.00202061 	0.0110906 	0 -0.00194775 	0.0114364 	0 -0.00188399 	0.0118163 	0 -0.00189396 	0.0120358 	0 -0.00205642 	0.0118117 	0 -0.00173633 	0.0119622 	0 -0.00148823 	0.0122548 	0 -0.00144134 	0.0127747 	0 -0.00163275 	0.0125493 	0 -0.00182153 	0.0122111 	0 -0.00148144 	0.012492 	0 -0.0011597 	0.0129061 	0 -0.0011278 	0.0130051 	0 -0.0013602 	0.0126453 	0 -0.0015726 	0.0121856 	0 -0.00121725 	0.0126126 	0 -0.000883094 	0.0132153 	0 -0.000840396 	0.012843 	0 -0.00109412 	0.0123938 	0 -0.00132609 	0.01181 	0 -0.000960552 	0.012395 	0 -0.000719919 	0.0127429 	0 -0.000695133 	0.0123041 	0 -0.000836344 	0.0117688 	0 -0.00108368 	0.0110646 	0 -0.000713317 	0.0118151 	0 -0.000577239 	0.0118144 	0 -0.000555573 	0.0113709 	0 -0.000599831 	0.010853 	0 -0.000857835 	0.0100392 	0 -0.000488121 	0.0109577 	0 -0.000447708 	0.0106081 	0 -0.000429196 	0.0101695 	0 -0.000410685 	0.00973086 	0 -0.000657951 	0.00883519 	0 -0.000349075 	0.00959661 	0 -0.000333606 	0.00917134 	0 -0.000318137 	0.00874606 	0 -0.000302667 	0.00832078 	0 -0.000481888 	0.00743088 	0 -0.000247935 	0.00791532 	0 -0.000235229 	0.00750968 	0 -0.000222523 	0.00710404 	0 -0.000209817 	0.00669839 	0 -0.000332441 	0.00587436 	2.90413e-37 -0.00016489 	0.00608335 	0 -0.000154491 	0.00569969 	0 -0.000144092 	0.00531604 	0 -0.000133693 	0.00493238 	0 -0.000210415 	0.00421982 	2.93057e-40 -9.93599e-05 	0.00415866 	0 -9.06248e-05 	0.00379306 	0 -8.18898e-05 	0.00342746 	0 -7.31547e-05 	0.00306185 	0 -0.000112133 	0.00249036 	-1.05089e-37 -5.09623e-05 	0.00231472 	0 -4.47278e-05 	0.00203155 	0 -3.84933e-05 	0.00174838 	0 -3.22589e-05 	0.00146521 	0 -3.11636e-05 	0.000729732 	0 -1.49309e-05 	0.000677147 	0 -1.30023e-05 	0.000589682 	0 -1.10738e-05 	0.000502218 	0 -9.14519e-06 	0.000414753 	0 0 	0 	0
-0.0295984 	4.06042e-05 	0 -0.0298196 	0.000178151 	0 -0.0299282 	0.000285951 	-6.96203e-25 -0.0299064 	0.000360932 	-2.16047e-24 -0.0297193 	0.000488258 	-1.78069e-23 -0.0294022 	0.000660049 	-4.54537e-23 -0.029534 	0.000736845 	-2.2488e-22 -0.0295927 	0.00081126 	-3.3553e-22 -0.0295348 	0.000881836 	-3.4139e-22 -0.0292553 	0.00104404 	-2.31139e-22 -0.0288746 	0.00125679 	-5.87448e-23 -0.0289183 	0.00127836 	-6.89423e-23 -0.028935 	0.00130981 	-7.78879e-23 -0.0288466 	0.00137702 	-8.22068e-23 -0.0284523 	0.00159634 	-5.58251e-23 -0.0280322 	0.00184657 	-2.38995e-23 -0.0279958 	0.00182141 	-4.77837e-23 -0.0279563 	0.0017959 	-7.16686e-23 -0.027802 	0.00188169 	-9.47548e-23 -0.0273284 	0.00215983 	-9.12673e-23 -0.0268939 	0.00244397 	-8.74168e-23 -0.0267897 	0.002383 	-2.75489e-22 -0.0266789 	0.00232101 	-4.63656e-22 -0.0263744 	0.00244202 	-4.48101e-22 -0.0259073 	0.00274858 	-2.29119e-22 -0.0254824 	0.0030632 	-9.5704e-24 -0.0253258 	0.00297906 	1.52679e-22 -0.025161 	0.00289334 	3.14862e-22 -0.024644 	0.00305956 	3.28021e-22 -0.0242016 	0.00337282 	2.40508e-22 -0.0238078 	0.00371449 	1.40329e-22 -0.023615 	0.00362071 	2.79084e-22 -0.0232272 	0.00368202 	3.15192e-22 -0.0227209 	0.00385797 	2.78705e-22 -0.0222432 	0.00404356 	2.41011e-22 -0.0218973 	0.00440765 	9.30132e-23 -0.0216891 	0.00437029 	8.51054e-23 -0.0212905 	0.00451464 	1.15969e-22 -0.0209107 	0.00466636 	1.47349e-22 -0.0205504 	0.00482579 	1.79268e-22 -0.0203029 	0.00494781 	2.02929e-22 -0.0202065 	0.00500186 	2.04787e-22 -0.0201121 	0.00505673 	2.0658e-22 -0.0200197 	0.00511242 	2.08309e-22 -0.0199293 	0.00516894 	2.09972e-22 -0.0197745 	0.00527396 	2.18168e-22 -0.0192706 	0.00542421 	1.97836e-22 -0.0188491 	0.00563914 	2.02097e-22 -0.0184595 	0.00586933 	2.03966e-22 -0.0180261 	0.00617318 	2.23339e-22 -0.0174515 	0.00663679 	2.83199e-22 -0.0169626 	0.00675997 	1.60717e-22 -0.0165041 	0.00690162 	3.738e-23 -0.0159457 	0.00716325 	0 -0.015494 	0.00759794 	4.02851e-23 -0.015065 	0.00810785 	8.14105e-23 -0.014921 	0.00817901 	3.48749e-23 -0.0147683 	0.00826374 	0 -0.0145804 	0.00838235 	0 -0.0144002 	0.00850634 	0 -0.0142549 	0.00861534 	0 -0.0139276 	0.00887389 	0 -0.0136238 	0.00915173 	0 -0.0133443 	0.00944918 	0 -0.0130037 	0.00978076 	0 -0.0126283 	0.0101967 	0 -0.0122773 	0.0104593 	0 -0.0119598 	0.0107523 	0 -0.011628 	0.0110561 	0 -0.0113176 	0.0113856 	0 -0.011122 	0.0116438 	0 -0.0109003 	0.0119136 	0 -0.0106926 	0.0121979 	0 -0.0104822 	0.0124677 	-1.79495e-23 -0.010272 	0.0127282 	-5.01973e-23 -0.010026 	0.0130703 	-9.0434e-23 -0.00977424 	0.01337 	-9.66122e-23 -0.00954489 	0.0136952 	-1.0387e-22 -0.00934274 	0.0140272 	-1.34387e-22 -0.00918787 	0.0142886 	-2.80838e-22 -0.00906981 	0.0145256 	-4.05366e-22 -0.00855088 	0.0151312 	-6.2749e-22 -0.00809227 	0.0157929 	-8.15241e-22 -0.00776549 	0.0162672 	-5.24256e-22 -0.00747381 	0.0167907 	-2.38234e-22 -0.00727309 	0.0174917 	1.38411e-22 -0.00720537 	0.0176406 	2.34645e-22 -0.00714885 	0.0177605 	2.63618e-22 -0.0071021 	0.0178545 	2.33286e-22 -0.00705623 	0.01795 	2.03285e-22 -0.00700523 	0.0180596 	1.69658e-22 -0.00676375 	0.0185531 	1.55433e-22 -0.00654681 	0.0190878 	1.4263e-22 -0.00635297 	0.019661 	1.31168e-22 -0.00627993 	0.0201318 	1.33836e-22 -0.00639212 	0.0203555 	1.58934e-22 -0.00582563 	0.0209894 	9.98216e-23 -0.00529324 	0.0217114 	4.17769e-23 -0.0052031 	0.0224702 	1.7199e-22 -0.00542573 	0.022831 	3.59781e-22 -0.00562595 	0.0231503 	5.33214e-22 -0.00504675 	0.0240289 	2.35732e-22 -0.00458371 	0.0248629 	0 -0.00447974 	0.025174 	0 -0.00458207 	0.0255421 	2.92202e-25 -0.00485001 	0.025918 	8.20773e-25 -0.00426364 	0.02706 	3.05379e-26 -0.00414271 	0.0274421 	0 -0.00404556 	0.0278176 	0 -0.0039536 	0.0282175 	0 -0.00408403 	0.0286193 	-1.22215e-22 -0.00382461 	0.029259 	0 -0.00376243 	0.0295139 	0 -0.00370228 	0.0297797 	0 -0.00364412 	0.0300561 	0 -0.00355739 	0.0304985 	0 -0.00353293 	0.0306382 	0 -0.00350885 	0.03078 	0 -0.00348515 	0.0309239 	0 -0.00346183 	0.0310698 	0 -0.00348405 	0.0310287 	0 -0.00333623 	0.0314869 	0 -0.00324616 	0.0319552 	0 -0.00316054 	0.032451 	0 -0.00307917 	0.0329733 	0 -0.00319579 	0.0326297 	0 -0.00289243 	0.0333044 	0 -0.00280572 	0.0338277 	0 -0.00272306 	0.0343794 	0 -0.00265358 	0.0349117 	0 -0.00289782 	0.0339132 	0 -0.00252811 	0.0348317 	0 -0.00238667 	0.0354822 	0 -0.00230652 	0.0360795 	0 -0.00235121 	0.0360454 	0 -0.00259844 	0.0348927 	0 -0.00223471 	0.0359766 	0 -0.00199664 	0.0369019 	0 -0.00191957 	0.0375331 	0 -0.00206283 	0.0369138 	0 -0.00230953 	0.0356137 	0 -0.00195661 	0.0368559 	0 -0.00164727 	0.0381177 	7.61002e-38 -0.00157544 	0.0387708 	6.47435e-37 -0.0018007 	0.037574 	1.22037e-36 -0.00204499 	0.0361357 	1.78646e-36 -0.00170677 	0.0375252 	1.15626e-36 -0.00137596 	0.0390497 	5.3233e-37 -0.00132751 	0.0395175 	7.82361e-40 -0.00157631 	0.038048 	1.6631e-39 -0.00181909 	0.0364813 	2.53355e-39 -0.00149807 	0.0380058 	1.57774e-39 -0.00118373 	0.039668 	6.30996e-40 -0.00115259 	0.0399399 	-3.96e-37 -0.00140466 	0.0383566 	-9.74826e-37 -0.00165108 	0.0366686 	-1.54735e-36 -0.00134801 	0.0383172 	-9.25004e-37 -0.00105109 	0.0401055 	-3.08275e-37 -0.00103935 	0.0402161 	0 -0.0013065 	0.0385229 	0 -0.00156782 	0.0367123 	0 -0.00128172 	0.0384817 	0 -0.00100158 	0.0403936 	0 -0.00100648 	0.0403498 	0 -0.00130948 	0.0385381 	0 -0.00160546 	0.036585 	0 -0.00133441 	0.0384896 	0 -0.00106977 	0.0405433 	0 -0.0010774 	0.0403011 	0 -0.00144881 	0.0383357 	0 -0.00180992 	0.0361846 	0 -0.00155364 	0.0382759 	0 -0.00130537 	0.0405305 	0 -0.00128197 	0.0399158 	0 -0.0017578 	0.0377353 	0 -0.00222526 	0.0352626 	0 -0.00199122 	0.0376693 	0 -0.00180349 	0.0394979 	0 -0.00175733 	0.0384868 	0 -0.002217 	0.0362185 	0 -0.00283541 	0.0331775 	0 -0.00265144 	0.0361876 	0 -0.00250723 	0.0369482 	0 -0.00239166 	0.0352451 	0 -0.0026222 	0.0327751 	0 -0.00341447 	0.028721 	0 -0.00335238 	0.0329511 	0 -0.00308567 	0.0308871 	0 -0.00278801 	0.0279075 	0 -0.00249035 	0.024928 	0 -0.0031738 	0.0195321 	0 -0.0030753 	0.0221527 	0 -0.00241617 	0.0174047 	0 -0.00175704 	0.0126567 	0 -0.00109791 	0.00790868 	0 -0.00014907 	0.000716187 	0 -0.00015716 	0.000912085 	0 -0.00012442 	0.000722076 	0 -9.16798e-05 	0.000532068 	0 -5.89397e-05 	0.000342059 	0 0 	0 	0
-0.0430196 	4.3831e-05 	0 -0.0429885 	0.000255655 	-2.01907e-23 -0.0429065 	0.000488552 	-4.61091e-23 -0.0428451 	0.00072196 	-7.21664e-23 -0.0428045 	0.000955873 	-9.83625e-23 -0.04274 	0.0011803 	-1.24946e-22 -0.0425928 	0.00137581 	-1.53793e-22 -0.0424078 	0.0015944 	-1.54177e-22 -0.0422426 	0.0018145 	-1.53771e-22 -0.0420974 	0.00203614 	-1.52565e-22 -0.0420472 	0.00212585 	-1.51756e-22 -0.0420344 	0.00215287 	-1.52036e-22 -0.0420218 	0.00217991 	-1.52313e-22 -0.0420096 	0.00220698 	-1.52584e-22 -0.0419976 	0.00223407 	-1.52851e-22 -0.0419765 	0.0022658 	-1.53915e-22 -0.0416996 	0.00247318 	-1.26051e-22 -0.0414384 	0.00268211 	-9.81656e-23 -0.0411976 	0.00289371 	-7.00931e-23 -0.0409776 	0.00310801 	-4.18315e-23 -0.0406653 	0.00338403 	-1.88857e-23 -0.040352 	0.00358019 	-4.05187e-24 -0.0400294 	0.00378358 	4.4754e-24 -0.0397274 	0.00399067 	1.32227e-23 -0.0394464 	0.00420155 	2.21946e-23 -0.0389233 	0.00456216 	1.709e-23 -0.0385628 	0.0047187 	2.10804e-22 -0.0382023 	0.00492329 	2.54307e-22 -0.0378631 	0.00513279 	2.99101e-22 -0.0374458 	0.00540637 	2.74318e-22 -0.0368048 	0.00583627 	7.39719e-23 -0.0363861 	0.00596935 	4.74704e-23 -0.0359914 	0.00612594 	3.02286e-23 -0.0356394 	0.00634613 	4.22535e-23 -0.0349869 	0.00677786 	7.48351e-23 -0.0343599 	0.00723606 	1.07694e-22 -0.0339156 	0.00736731 	5.86471e-23 -0.0334891 	0.00750532 	9.39844e-24 -0.0328295 	0.0078211 	6.54471e-26 -0.0322167 	0.00828728 	1.66965e-23 -0.0316372 	0.00878196 	3.31725e-23 -0.0312004 	0.00893079 	5.1149e-24 -0.0305535 	0.00925389 	0 -0.0298921 	0.00963269 	0 -0.0292731 	0.0100334 	0 -0.028713 	0.0104463 	0 -0.0287061 	0.0104525 	0 -0.0286993 	0.0104588 	0 -0.0286924 	0.010465 	0 -0.0286843 	0.0104719 	0 -0.0286737 	0.0104801 	0 -0.0280129 	0.0108768 	0 -0.0273983 	0.0113033 	0 -0.0268287 	0.0117578 	0 -0.0262066 	0.0122895 	0 -0.0254247 	0.0129841 	0 -0.0247872 	0.0133777 	0 -0.0241819 	0.0138139 	0 -0.0234383 	0.0143613 	0 -0.0227618 	0.0149569 	0 -0.0220647 	0.0156991 	0 -0.0220641 	0.0156997 	0 -0.0220635 	0.0157003 	0 -0.0220628 	0.0157009 	0 -0.0220621 	0.0157014 	0 -0.0220613 	0.015702 	0 -0.021298 	0.0163299 	0 -0.0206027 	0.0170212 	0 -0.019963 	0.0177717 	6.30599e-26 -0.0192502 	0.0185396 	7.43119e-25 -0.0184145 	0.0196373 	1.63899e-24 -0.0183216 	0.0197613 	1.64304e-24 -0.0182307 	0.0198873 	1.64781e-24 -0.0181364 	0.0200056 	-4.34771e-24 -0.0180363 	0.0201126 	-1.86527e-23 -0.0179433 	0.0202159 	-3.2223e-23 -0.0171645 	0.0210552 	-2.51364e-23 -0.016465 	0.0219846 	-1.4567e-23 -0.0158107 	0.0228461 	-4.64347e-23 -0.0152379 	0.0237157 	-1.13268e-22 -0.0148378 	0.024608 	-2.00427e-22 -0.0147446 	0.0248031 	-2.66326e-22 -0.0146529 	0.0249944 	-3.17176e-22 -0.0145601 	0.0251427 	-2.53672e-22 -0.0144691 	0.0252929 	-1.90593e-22 -0.0143705 	0.0254606 	-1.21498e-22 -0.0139184 	0.0261817 	2.3648e-22 -0.013509 	0.0269561 	5.8239e-22 -0.0131404 	0.027781 	9.16595e-22 -0.012899 	0.0283739 	6.31548e-22 -0.0127309 	0.028855 	2.2325e-22 -0.0120838 	0.0299275 	-1.21535e-22 -0.0114909 	0.0310838 	-4.71e-22 -0.0111156 	0.031778 	-7.04813e-23 -0.0108807 	0.0325461 	6.7552e-22 -0.0107868 	0.0332929 	1.64344e-21 -0.0104415 	0.0341383 	2.29017e-21 -0.0102058 	0.0347069 	2.05178e-21 -0.0100081 	0.0352079 	1.56538e-21 -0.00981997 	0.0357268 	1.08915e-21 -0.00956019 	0.0365052 	4.11873e-22 -0.00946962 	0.0368071 	3.08646e-22 -0.00938159 	0.037114 	2.05683e-22 -0.00929605 	0.0374258 	1.02979e-22 -0.00921628 	0.0377362 	2.86902e-24 -0.00928115 	0.0377898 	3.04013e-24 -0.00877024 	0.0387156 	-8.47747e-23 -0.00849895 	0.0397023 	-2.95801e-22 -0.0082496 	0.0407359 	-5.10768e-22 -0.00815367 	0.0415431 	-7.29148e-22 -0.00839231 	0.0416966 	-9.42209e-22 -0.00771887 	0.0428583 	-6.17129e-22 -0.00712354 	0.0441014 	-1.60329e-22 -0.00694527 	0.0452529 	1.24653e-21 -0.00723981 	0.0454147 	2.3689e-21 -0.00751767 	0.0455425 	3.45312e-21 -0.0068398 	0.0469322 	1.92103e-21 -0.00618881 	0.0484252 	4.09939e-22 -0.00602904 	0.0490525 	6.57281e-25 -0.00635268 	0.0491758 	3.63923e-24 -0.00666036 	0.0492599 	6.54036e-24 -0.00598308 	0.05087 	2.70372e-24 -0.00548307 	0.0521838 	0 -0.00537554 	0.0525774 	0 -0.00550666 	0.0527879 	-3.00179e-21 -0.00583357 	0.0528082 	-8.50709e-21 -0.00516245 	0.0546236 	-1.61524e-21 -0.00492499 	0.0553654 	0 -0.004821 	0.0557841 	0 -0.00471966 	0.0562237 	0 -0.00505407 	0.056161 	-1.07899e-23 -0.0044873 	0.0578748 	0 -0.00438553 	0.0582886 	0 -0.00428611 	0.0587237 	0 -0.00418899 	0.0591796 	0 -0.00433499 	0.0592755 	2.53825e-21 -0.00397377 	0.0605018 	3.30007e-37 -0.00387945 	0.0609244 	9.65954e-37 -0.00378711 	0.0613674 	1.60079e-36 -0.00369672 	0.0618305 	2.23453e-36 -0.00369596 	0.0621392 	2.98223e-36 -0.00354334 	0.0627477 	3.24404e-36 -0.00348889 	0.0630235 	2.69653e-36 -0.00343513 	0.0633075 	2.15205e-36 -0.00338205 	0.0635995 	1.61054e-36 -0.00331133 	0.0640043 	8.8378e-37 -0.00328818 	0.0641442 	6.98809e-37 -0.00326516 	0.0642856 	5.13917e-37 -0.00324228 	0.0644285 	3.29104e-37 -0.00321953 	0.064573 	1.44369e-37 -0.00321937 	0.0645636 	4.4838e-39 -0.00313482 	0.06506 	-5.17651e-37 -0.00307208 	0.0654884 	-1.08549e-36 -0.0030105 	0.065932 	-1.65412e-36 -0.00295008 	0.0663906 	-2.22353e-36 -0.00298026 	0.0661882 	-2.79303e-36 -0.00286011 	0.0669972 	-2.17068e-36 -0.00283006 	0.0674325 	-1.54966e-36 -0.00280066 	0.067877 	-9.29048e-37 -0.00277191 	0.0683306 	-3.08841e-37 -0.00288696 	0.0676017 	0 -0.00274049 	0.0687571 	0 -0.0027639 	0.0692167 	0 -0.00278724 	0.0696752 	0 -0.00281051 	0.0701328 	0 -0.00302094 	0.0688411 	0 -0.00284134 	0.0703967 	0 -0.00295109 	0.0709146 	0 -0.00305945 	0.0714141 	0 -0.00316645 	0.0718957 	0 -0.00349699 	0.0699134 	0 -0.00324757 	0.0719836 	0 -0.00349485 	0.0726187 	0 -0.00373793 	0.0732068 	0 -0.00400496 	0.073361 	0 -0.00446381 	0.0707358 	0 -0.00422976 	0.0731424 	0 -0.00450552 	0.0743958 	0 -0.00495678 	0.0751541 	0 -0.00546711 	0.0742711 	0 -0.00606536 	0.0709716 	0 -0.00588139 	0.0739817 	0 -0.00604037 	0.0763773 	0 -0.00680004 	0.0774517 	0 -0.0075651 	0.0743831 	0 -0.00830081 	0.0698226 	0 -0.00823872 	0.0740527 	0 -0.00819728 	0.0784608 	0 -0.00906605 	0.078695 	0 -0.0098969 	0.0723386 	0 -0.0106324 	0.0654332 	0 -0.0108418 	0.0721858 	0 -0.0111046 	0.0792772 	0 -0.0105509 	0.0756101 	0 -0.0110202 	0.0653299 	0 -0.0112933 	0.054257 	0 -0.0120167 	0.0664171 	0 -0.011493 	0.0667003 	0 -0.00998552 	0.0579514 	0 -0.00847802 	0.0492026 	0 -0.00718143 	0.0311677 	0 -0.00788522 	0.0461077 	0 -0.00640522 	0.0374536 	0 -0.00492523 	0.0287996 	0 -0.00344523 	0.0201455 	0 0 	0 	0