# vtk DataFile Version 2.0
track0
ASCII
DATASET POLYDATA
POINTS 33966 float
0.05 8.57988e-20 2.57396e-18
0.05 0.00217391 -1.05592e-17
0.05 0.00217391 -1.05592e-17
0.05 0.00217391 -1.05592e-17
0.05 0.00217391 -1.05592e-17
0.05 0.00217391 -1.05592e-17
0.05 0.00217391 -1.38778e-17
0.0493333 0.00217638 -8.74301e-18
0.0486667 0.00217956 -9.22873e-18
0.048 0.00218404 -5.76503e-18
0.0473334 0.00219147 -6.42508e-18
0.0466667 0.00220149 0
0.046 0.00221406 -3.88578e-18
0.0453333 0.00222585 -3.67759e-18
0.0446666 0.00223808 -9.91332e-19
0.044 0.00225314 -4.42001e-18
0.0433333 0.00227163 -1.38778e-17
0.0426667 0.00229403 -5.27356e-18
0.0419999 0.00231432 -7.14751e-18
0.0413332 0.00233477 -6.39251e-18
0.0406666 0.00235802 -2.53911e-18
0.04 0.00238515 -6.93889e-18
0.0393333 0.00241746 -8.74301e-18
0.0386665 0.00244653 -1.16571e-17
0.0379997 0.00247629 -1.37789e-17
0.0373331 0.00250892 -6.33409e-18
0.0366667 0.0025453 -5.55112e-18
0.036 0.00258803 -6.66134e-18
0.0353331 0.00262662 1.41299e-19
0.0346663 0.00266741 4.20041e-19
0.0339997 0.0027113 -4.84792e-18
0.0333333 0.00275839 -6.93889e-18
0.0326667 0.00281264 -9.29812e-18
0.0319997 0.00286369 -1.0963e-17
0.0313331 0.00291809 -1.44309e-17
0.0306667 0.00297597 -6.07675e-18
0.03 0.00303753 -1.249e-17
0.0294169 0.00309669 -1.01312e-17
0.0288338 0.00315554 -1.92214e-17
0.0282509 0.00321735 -2.39226e-17
0.0276684 0.00328224 -3.03357e-17
0.0272315 0.00333333 -2.63447e-17
0.0271185 0.00334703 -2.38513e-17
0.0270056 0.00336085 -2.82968e-17
0.0268926 0.00337479 -2.99667e-17
0.0267797 0.00338887 -2.46976e-17
0.0266667 0.00340309 -3.03569e-17
0.026 0.00348924 -3.56928e-17
0.0253338 0.00357886 -2.853e-17
0.0246682 0.00367324 -2.40806e-17
0.0240034 0.00377257 -1.84631e-17
0.0233333 0.00387799 -2.17237e-17
0.0226667 0.00400098 -1.49896e-17
0.0219994 0.00412068 -2.1434e-17
0.0213332 0.00424623 -2.16482e-17
0.0206682 0.00437787 -1.89812e-17
0.02 0.00452559 -1.53825e-17
0.0193333 0.00470037 -1.33125e-17
0.0186665 0.00487438 -1.6092e-17
0.0179994 0.00504754 -1.6578e-17
0.0173356 0.00523297 -1.53775e-17
0.0166667 0.00544933 -1.38778e-17
0.0160122 0.00569279 -1.29367e-17
0.0153586 0.00593878 -1.2635e-17
0.0147102 0.00619796 -9.20742e-18
0.0140702 0.00647728 -1.7327e-17
0.0136733 0.00666667 -2.27706e-17
0.0136053 0.00670099 -1.71062e-17
0.0135375 0.00673562 -2.39322e-17
0.0134698 0.00677057 -2.6595e-17
0.0134023 0.00680582 -2.11334e-17
0.0133333 0.00684234 -2.2497e-17
0.0126667 0.00720131 -1.89315e-17
0.012013 0.00758337 -1.40166e-17
0.0113749 0.00799102 -1.47797e-17
0.0107543 0.00842483 -1.01798e-17
0.01 0.00901436 -1.11022e-17
0.00978062 0.00921149 -1.1942e-17
0.00956366 0.00941127 -7.2367e-18
0.00934915 0.00961368 -5.09526e-18
0.00913717 0.00981874 -1.46147e-18
0.00895439 0.01 -6.93889e-18
0.00849685 0.0104637 -2.29436e-19
0.00806207 0.0109488 2.44489e-18
0.00765136 0.0114545 2.51708e-18
0.00726333 0.0119777 8.15556e-18
0.00666667 0.0128521 6.93889e-18
0.00660916 0.0129483 5.45535e-18
0.00655211 0.0130449 -1.90783e-19
0.00649549 0.0131416 -1.67285e-18
0.00643931 0.0132387 3.15418e-18
0.00638472 0.0133333 4.16334e-18
0.00600141 0.014 1.27676e-17
0.00565479 0.0146865 8.84882e-18
0.00533814 0.0153872 1.29877e-17
0.00504759 0.0160992 1.12645e-17
0.00481796 0.0166667 9.78013e-18
0.00454978 0.0173333 8.24285e-18
0.00431965 0.0180141 2.91414e-18
0.00411558 0.0187031 6.36693e-18
0.0039216 0.019395 7.43309e-18
0.00376102 0.02 9.60436e-18
0.00367548 0.0203149 1.18468e-17
0.00359794 0.0206319 1.31016e-17
0.00352281 0.0209494 1.51433e-17
0.00344962 0.0212674 8.8559e-18
0.00333333 0.0217869 1.11022e-17
0.00326714 0.0220962 5.44089e-18
0.00320253 0.0224058 1.366e-17
0.00313945 0.0227157 1.07794e-17
0.00307786 0.023026 9.289e-18
0.00301833 0.0233333 1.11022e-17
0.00288587 0.024 3.05311e-18
0.00276635 0.0246691 7.83689e-18
0.00265382 0.0253394 4.47299e-18
0.00254775 0.0260108 7.05817e-18
0.00244734 0.0266667 6.93889e-18
0.00233448 0.0273333 7.91034e-18
0.00223927 0.0280027 1.20112e-17
0.00215654 0.0286738 1.08772e-17
0.00207898 0.0293455 1.11095e-17
0.00199487 0.03 6.93889e-18
0.00189696 0.0306667 2.35922e-18
0.00181778 0.0313358 8.9792e-19
0.00175646 0.0320068 -4.96479e-19
0.00169715 0.032678 -4.19398e-19
0.00162609 0.0333333 2.48708e-18
0.00154002 0.034 -5.58666e-18
0.00147401 0.034669 -1.37097e-18
0.00142664 0.0353395 -1.56909e-18
0.00138035 0.0360101 -2.26413e-18
0.0013204 0.0366667 -1.85196e-18
0.001244 0.0373333 -2.76557e-18
0.00118934 0.0380021 4.16828e-19
0.00115044 0.038672 3.25234e-18
0.00111154 0.0393419 -2.36731e-18
0.00106155 0.04 -9.40061e-18
0.000993275 0.0406667 -7.20525e-18
0.000948862 0.0413353 -3.51971e-18
0.000914262 0.0420046 -2.64445e-18
0.000879662 0.0426739 -4.83747e-18
0.000839072 0.0433333 -6.94845e-18
0.000777764 0.044 -6.15246e-18
0.000743104 0.0446686 -8.72833e-18
0.000712182 0.0453373 -1.02762e-17
0.000681261 0.0460061 -1.69224e-17
0.000650011 0.0466667 -2.67564e-17
0.000594724 0.0473333 -2.84164e-17
0.000566969 0.0480017 -2.71704e-17
0.000539214 0.0486701 -2.86633e-17
0.000511459 0.0493385 -2.52661e-17
0.000483989 0.05 -2.5786e-17
0.000433885 0.0506667 -1.88678e-17
0.000408818 0.0513347 -2.13564e-17
0.000383751 0.0520028 -2.31112e-17
0.000358684 0.0526709 -2.04074e-17
0.000333829 0.0533333 -1.99848e-17
0.000288066 0.054 -1.4982e-17
0.000265171 0.0546678 -1.90359e-17
0.000242276 0.0553357 -1.27021e-17
0.000219381 0.0560035 -2.04062e-17
0.000196648 0.0566667 -2.39197e-17
0.000157318 0.0572855 -3.74169e-18
0.000137497 0.0579053 4.45954e-19
0.000117676 0.0585251 9.91558e-18
9.78548e-05 0.0591448 5.58748e-18
7.05055e-05 0.06 9.59704e-18
5.64044e-05 0.0602341 3.76543e-18
4.91514e-05 0.0604686 9.71907e-18
4.18984e-05 0.060703 8.73381e-18
3.46454e-05 0.0609375 1.53813e-17
0 0.0620574 2.12487e-18
0.05 0.00434783 5.94331e-18
0.0493333 0.00435068 3.85689e-18
0.0486667 0.00435617 3.15387e-18
0.0480001 0.00436377 -1.52665e-18
0.0473334 0.00437295 7.90675e-18
0.0466667 0.00438502 1.07386e-17
0.046 0.00440113 1.20995e-17
0.0453334 0.00441856 1.554e-17
0.0446668 0.0044374 1.23519e-17
0.0440002 0.00445778 4.57192e-18
0.0433333 0.00448206 1.00807e-17
0.0426667 0.00451154 1.61751e-17
0.042 0.00454123 1.5679e-17
0.0413334 0.00457139 1.51267e-17
0.0406668 0.00460313 1.08822e-17
0.04 0.00464046 9.27237e-18
0.0393333 0.00468426 7.11777e-18
0.0386666 0.00472734 4.6174e-18
0.0379999 0.00476972 4.94234e-18
0.0373333 0.00481436 6.21354e-18
0.0366667 0.00486647 6.53842e-18
0.036 0.00492641 1.16897e-18
0.0353332 0.00498498 -5.1517e-18
0.0346663 0.00504216 -4.14269e-18
0.0339997 0.00510296 -3.91115e-18
0.0333333 0.00517264 1.38778e-18
0.0326667 0.00525169 2.77556e-19
0.0319998 0.00532898 5.55626e-19
0.0313327 0.00540448 -1.99764e-18
0.0306663 0.0054859 3.00721e-18
0.03 0.00557734 6.93889e-18
0.0293333 0.00567988 -4.16334e-19
0.0286664 0.00578061 2.56785e-18
0.028 0.00588463 5.08135e-18
0.0273347 0.00599586 1.08316e-17
0.0266667 0.00611549 1.38778e-17
0.0261117 0.00622573 1.06387e-17
0.0255567 0.00633611 6.01185e-18
0.0250029 0.00645227 3.79535e-18
0.0244504 0.00657448 3.78838e-18
0.0240552 0.00666667 -5.08179e-19
0.0239108 0.00670165 4.26124e-19
0.0237665 0.0067371 6.66344e-19
0.0236224 0.00677304 7.84526e-18
0.0234784 0.00680946 -2.41593e-19
0.0233333 0.00684667 1.08801e-18
0.0226667 0.0070221 2.18365e-18
0.0220025 0.00720682 -2.28732e-18
0.0213415 0.00740242 -4.65352e-19
0.0206839 0.00760941 -9.56782e-19
0.02 0.00784122 2.93404e-18
0.0193333 0.0080925 3.38826e-18
0.0186708 0.00835451 9.92952e-18
0.0180129 0.00862788 7.83616e-18
0.0173624 0.00891844 1.29034e-17
0.0166667 0.00925841 1.38778e-17
0.0163908 0.00940672 1.48061e-17
0.0161162 0.00955738 1.47945e-17
0.015843 0.00971068 2.35761e-17
0.0155719 0.00986746 1.70888e-17
0.0153493 0.01 6.93889e-18
0.0149461 0.0102462 1.50951e-17
0.0145489 0.0105018 1.08126e-17
0.014158 0.0107671 6.95334e-18
0.0137738 0.0110419 1.55733e-17
0.0133333 0.0113764 1.67898e-17
0.012853 0.0117678 6.13904e-18
0.0123838 0.0121724 1.09088e-17
0.0119263 0.0125901 1.60476e-17
0.011481 0.013021 1.85996e-17
0.0111767 0.0133333 2.29368e-17
0.0109414 0.0135849 2.1125e-17
0.0107116 0.0138417 2.48083e-17
0.0104876 0.0141034 2.68382e-17
0.010269 0.0143697 2.34824e-17
0.01 0.0147114 2.30064e-17
0.00970768 0.0151025 3.00443e-17
0.00942439 0.0155001 2.40214e-17
0.00915008 0.015904 2.84771e-17
0.00888432 0.0163136 2.75319e-17
0.00866291 0.0166667 2.498e-17
0.00826366 0.017322 2.54131e-17
0.00789452 0.0179948 2.68978e-17
0.00755373 0.0186824 2.48112e-17
0.00723249 0.0193794 2.62052e-17
0.00696618 0.02 2.7116e-17
0.00690628 0.0201465 2.83541e-17
0.0068477 0.0202935 1.83151e-17
0.00679017 0.0204409 1.99575e-17
0.00673347 0.0205886 1.61346e-17
0.00666667 0.0207656 1.71781e-17
0.00647666 0.0212792 1.67262e-17
0.00629549 0.0217959 1.88108e-17
0.00612271 0.0223155 1.57475e-17
0.00595785 0.0228376 1.6446e-17
0.00580637 0.0233333 1.38778e-17
0.00560114 0.024 1.90126e-17
0.00541735 0.0246729 1.92798e-17
0.00525243 0.0253507 2.17841e-17
0.00509645 0.0260305 1.54519e-17
0.00494643 0.0266667 1.9165e-17
0.0047854 0.0273333 1.85459e-17
0.00464442 0.0280045 1.69148e-17
0.0045216 0.0286793 1.85058e-17
0.00440257 0.0293547 1.84002e-17
0.00428541 0.03 1.43739e-17
0.00415901 0.0306667 9.7272e-18
0.00405108 0.0313366 7.96945e-18
0.00394938 0.0320075 1.1672e-18
0.00385096 0.0326788 6.6411e-18
0.00375816 0.0333333 1.45581e-17
0.00367319 0.0339071 1.91246e-17
0.00359726 0.0344822 2.64538e-17
0.00352352 0.0350576 2.49709e-17
0.00345193 0.0356332 2.39255e-17
0.00333333 0.0366155 2.498e-17
0.00333216 0.0366257 1.94269e-17
0.00333098 0.0366359 1.66494e-17
0.00332981 0.0366462 1.80353e-17
0.00332864 0.0366564 1.94211e-17
0.00332746 0.0366667 1.80411e-17
0.00325106 0.0373333 2.8727e-17
0.0031774 0.0380003 2.69224e-17
0.00310631 0.0386676 2.87653e-17
0.00303769 0.0393351 3.83655e-17
0.00297171 0.04 3.60822e-17
0.00290344 0.0406667 3.56659e-17
0.0028415 0.041334 3.59424e-17
0.00278185 0.0420014 3.93272e-17
0.00272438 0.0426691 3.92315e-17
0.00266932 0.0433333 3.60822e-17
0.00260801 0.044 3.42781e-17
[...]
POINT_DATA 33966
 FIELD attributes 1
U 3 33966 float
-5.2536e-19 	-7.90811e-22 	0
-0.0122622 	4.5341e-05 	0 -0.0122622 	4.5341e-05 	0 -0.0122622 	4.5341e-05 	0 -0.0122622 	4.5341e-05 	0 -0.0122622 	4.5341e-05 	0 -0.0122622 	4.5341e-05 	0 -0.0125722 	6.00416e-05 	0 -0.0127897 	8.58549e-05 	-8.61514e-25 -0.0127501 	0.000142077 	-4.08157e-24 -0.0125146 	0.0001881 	-7.31566e-24 -0.0122117 	0.000230356 	-1.05626e-23 -0.0125151 	0.000221374 	4.05565e-22 -0.0126855 	0.000232606 	6.80018e-22 -0.0126005 	0.000284589 	6.70278e-22 -0.0123846 	0.000343504 	4.00607e-22 -0.0121036 	0.00040672 	-1.77573e-23 -0.0123898 	0.000377134 	2.4672e-22 -0.0124827 	0.000382888 	4.11083e-22 -0.0123607 	0.000431028 	4.56681e-22 -0.0121747 	0.000495539 	3.78794e-22 -0.0119245 	0.000577847 	1.68357e-22 -0.0121848 	0.000531326 	1.2358e-22 -0.0121749 	0.000543291 	1.26057e-22 -0.0120261 	0.000588581 	1.55149e-22 -0.0118666 	0.000647822 	1.95896e-22 -0.0116539 	0.000746939 	2.70618e-22 -0.0118818 	0.000687536 	2.04281e-22 -0.0117507 	0.000718918 	1.58297e-22 -0.011586 	0.00076281 	1.15243e-22 -0.0114338 	0.000808056 	7.26354e-23 -0.0112668 	0.000916749 	9.16191e-23 -0.0113841 	0.000871451 	3.84519e-23 -0.0112018 	0.000914021 	2.22452e-23 -0.0110316 	0.000958216 	6.37485e-24 -0.010874 	0.0010041 	-9.1445e-24 -0.0107432 	0.00108997 	4.27512e-24 -0.0107191 	0.0010817 	-2.33717e-23 -0.010562 	0.00112012 	-1.67559e-23 -0.0104141 	0.00116006 	-9.79215e-24 -0.010276 	0.00120159 	-2.46723e-24 -0.0101799 	0.001234 	3.31184e-24 -0.0101568 	0.00124281 	4.8987e-24 -0.0101342 	0.00125168 	6.50082e-24 -0.010112 	0.00126063 	8.1183e-24 -0.0100902 	0.00126964 	9.7512e-24 -0.0100428 	0.00129765 	4.03361e-24 -0.00985736 	0.00132606 	3.61397e-24 -0.00969267 	0.00137449 	4.4298e-24 -0.00954063 	0.00142549 	5.22779e-24 -0.00940179 	0.00147918 	6.00713e-24 -0.0091014 	0.00167896 	3.0852e-23 -0.00884299 	0.00158634 	2.36177e-22 -0.00869733 	0.00163914 	2.78711e-22 -0.00856444 	0.00169534 	3.22933e-22 -0.00834705 	0.00184533 	2.7207e-22 -0.00804656 	0.00210957 	1.13186e-22 -0.00781661 	0.00203959 	2.92556e-22 -0.00758513 	0.00196894 	4.71914e-22 -0.00735412 	0.00205437 	4.83093e-22 -0.00710818 	0.00229907 	3.27806e-22 -0.00689928 	0.00256649 	1.7351e-22 -0.00671549 	0.00252759 	3.29738e-22 -0.00646397 	0.00258362 	3.55005e-22 -0.00619331 	0.002703 	3.06265e-22 -0.0059543 	0.00284121 	2.546e-22 -0.00582543 	0.00294092 	2.20115e-22 -0.00580105 	0.00296179 	2.14182e-22 -0.00577715 	0.00298296 	2.08206e-22 -0.00575371 	0.00300445 	2.02188e-22 -0.00572221 	0.00303141 	2.01691e-22 -0.00568649 	0.0030619 	2.03783e-22 -0.00538422 	0.00314683 	1.41243e-22 -0.0051555 	0.00329384 	8.1911e-23 -0.00495539 	0.00346395 	2.07962e-23 -0.00471844 	0.00368766 	2.26993e-23 -0.00446359 	0.00401092 	2.72562e-23 -0.00440307 	0.00405434 	1.57385e-23 -0.00434609 	0.00410111 	4.21416e-24 -0.00429028 	0.00415001 	2.41419e-23 -0.00423671 	0.00420161 	6.22023e-23 -0.00419315 	0.00424962 	9.54256e-23 -0.00395368 	0.0044115 	9.48632e-23 -0.00373929 	0.00460376 	9.02685e-23 -0.00355587 	0.00479505 	8.16321e-23 -0.0034011 	0.00498398 	6.93474e-23 -0.00318451 	0.00533012 	4.40957e-23 -0.00316809 	0.00535867 	7.20497e-23 -0.00315211 	0.0053878 	9.96954e-23 -0.00313656 	0.0054175 	1.27035e-22 -0.00313587 	0.0054381 	6.93237e-23 -0.00313752 	0.00545693 	2.16341e-25 -0.00282802 	0.00560074 	-4.85422e-22 -0.00266388 	0.00589536 	-7.7889e-22 -0.00254357 	0.00623327 	-1.03223e-21 -0.00261376 	0.00645853 	-8.13882e-22 -0.00267138 	0.00664067 	-6.39621e-22 -0.00234381 	0.0069333 	-4.28467e-22 -0.0021303 	0.00719242 	-2.50164e-22 -0.00206012 	0.00734841 	-1.28805e-22 -0.0019968 	0.0075232 	-4.19119e-24 -0.00212204 	0.00781221 	-1.29228e-23 -0.00196728 	0.00804217 	-8.23271e-25 -0.00192619 	0.00814025 	0 -0.00189484 	0.00823331 	0 -0.00186504 	0.00833134 	0 -0.00181888 	0.00849914 	0 -0.0017942 	0.00859779 	0 -0.00177075 	0.00870063 	0 -0.00174851 	0.00880753 	0 -0.00172743 	0.00891837 	0 -0.00176509 	0.0088841 	0 -0.00160746 	0.00899884 	0 -0.0015544 	0.00925866 	0 -0.00150757 	0.00954245 	0 -0.00149471 	0.00976381 	0 -0.0016218 	0.0095801 	0 -0.00138031 	0.00970487 	0 -0.00122766 	0.00995792 	0 -0.00119424 	0.0103426 	0 -0.00131596 	0.0102396 	0 -0.00146469 	0.00997278 	0 -0.00120579 	0.0101906 	0 -0.000959946 	0.0105046 	0 -0.000945383 	0.0106994 	0 -0.00112975 	0.0104183 	0 -0.00129923 	0.0100624 	0 -0.00102465 	0.010385 	0 -0.000765397 	0.0108348 	0 -0.000735837 	0.0106584 	0 -0.000941542 	0.0103123 	0 -0.00113043 	0.00986413 	0 -0.000842024 	0.0103021 	0 -0.000620395 	0.0106846 	0 -0.000600105 	0.0103352 	0 -0.000753542 	0.0099182 	0 -0.000960411 	0.00937845 	0 -0.000660247 	0.00994084 	0 -0.000519154 	0.0100418 	0 -0.000500223 	0.00967566 	0 -0.000568726 	0.00923999 	0 -0.000792261 	0.00861508 	0 -0.000482579 	0.00930899 	0 -0.000420983 	0.00910487 	0 -0.000403465 	0.008726 	0 -0.000394403 	0.00833683 	0 -0.000633663 	0.00764087 	0 -0.000345145 	0.00831163 	0 -0.000329037 	0.00792374 	0 -0.00031293 	0.00753585 	0 -0.000296823 	0.00714796 	0 -0.00048324 	0.00642976 	0 -0.000256221 	0.00682877 	0 -0.000241419 	0.00643425 	0 -0.000226616 	0.00603974 	0 -0.000211813 	0.00564522 	0 -0.000340251 	0.00495675 	2.48394e-37 -0.000173164 	0.00505115 	0 -0.000159401 	0.0046497 	0 -0.000145638 	0.00424824 	0 -0.000131876 	0.00384678 	0 -0.000205497 	0.00323346 	2.49514e-40 -9.74522e-05 	0.00304717 	0 -8.51738e-05 	0.00266325 	0 -7.28954e-05 	0.00227932 	0 -6.06171e-05 	0.0018954 	0 -7.6771e-05 	0.00127473 	-5.23719e-38 -3.71164e-05 	0.00119977 	0 -3.23436e-05 	0.00104549 	0 -2.75708e-05 	0.000891217 	0 -2.2798e-05 	0.000736939 	0 0 	0 	0
-0.0237454 	0.00010162 	0 -0.0239385 	0.000197039 	0 -0.0240319 	0.000274154 	-1.48969e-24 -0.0240093 	0.000330695 	-4.65165e-24 -0.0238347 	0.000431493 	-3.8466e-23 -0.0235436 	0.000568776 	-9.74314e-23 -0.0236691 	0.000618997 	-4.79236e-22 -0.0237288 	0.000670517 	-7.20266e-22 -0.0236789 	0.000723979 	-7.34433e-22 -0.0234273 	0.000852902 	-5.12044e-22 -0.0230884 	0.00102102 	-1.70889e-22 -0.0231478 	0.00103085 	-3.55672e-22 -0.0231815 	0.00104888 	-4.96578e-22 -0.0231086 	0.00110021 	-4.58672e-22 -0.0227607 	0.00127444 	-2.08012e-22 -0.0223924 	0.00147092 	7.58201e-23 -0.0223914 	0.00144711 	4.50252e-22 -0.0223872 	0.00142293 	8.24796e-22 -0.0222579 	0.00149031 	8.4501e-22 -0.0218487 	0.00170807 	5.18871e-22 -0.0214699 	0.00193046 	1.91953e-22 -0.0214169 	0.00188127 	2.88967e-22 -0.0213584 	0.00183121 	3.86146e-22 -0.0211121 	0.00192566 	3.61771e-22 -0.0207082 	0.00216538 	2.13634e-22 -0.0203369 	0.00241134 	6.5324e-23 -0.0202425 	0.00234612 	8.04883e-23 -0.0201415 	0.00227962 	9.57011e-23 -0.0197283 	0.00241036 	1.03217e-22 -0.0193471 	0.00265511 	8.09006e-23 -0.0190002 	0.00292227 	5.4756e-23 -0.0188756 	0.00285098 	1.21839e-22 -0.0185787 	0.00289966 	1.41638e-22 -0.0181727 	0.00303857 	1.27356e-22 -0.0177887 	0.0031856 	1.12209e-22 -0.0174801 	0.00347184 	4.30399e-23 -0.0173247 	0.00344577 	4.06773e-23 -0.0169935 	0.00356435 	6.26886e-23 -0.0166776 	0.00368907 	8.50052e-23 -0.0163778 	0.00382023 	1.0764e-22 -0.0161749 	0.00391912 	1.2411e-22 -0.0161041 	0.00395824 	1.26104e-22 -0.0160346 	0.00399788 	1.28067e-22 -0.0159664 	0.00403806 	1.29999e-22 -0.0158996 	0.00407877 	1.31898e-22 -0.0157829 	0.00415307 	1.36533e-22 -0.0153847 	0.0042791 	1.26728e-22 -0.0150408 	0.00445057 	1.31034e-22 -0.0147216 	0.00463411 	1.33805e-22 -0.0143684 	0.00487005 	1.46167e-22 -0.0138835 	0.00523287 	1.84889e-22 -0.0134969 	0.00533773 	1.06271e-22 -0.0131341 	0.0054573 	2.70898e-23 -0.0126931 	0.00566971 	2.05148e-24 -0.0123092 	0.00601481 	3.05693e-23 -0.0119372 	0.0064176 	5.87562e-23 -0.0118148 	0.00648192 	2.51468e-23 -0.0116838 	0.00655736 	0 -0.0115193 	0.00665981 	0 -0.0113615 	0.00676713 	0 -0.0112367 	0.00685998 	0 -0.0109773 	0.00706504 	0 -0.0107355 	0.00728477 	0 -0.0105117 	0.00751942 	0 -0.0102386 	0.00777575 	0 -0.00993606 	0.00809671 	0 -0.00964636 	0.00831888 	0 -0.00938398 	0.00856618 	0 -0.0091108 	0.00881723 	0 -0.00885424 	0.00908725 	0 -0.00869431 	0.00929544 	0 -0.00851432 	0.00951533 	0 -0.00834539 	0.00974676 	0 -0.00817563 	0.00996312 	-2.43982e-24 -0.00800802 	0.0101713 	-6.62755e-24 -0.00780955 	0.0104472 	-1.19019e-23 -0.00761407 	0.0106878 	-1.27546e-23 -0.00743523 	0.0109475 	-1.37423e-23 -0.00727635 	0.0112134 	-2.52608e-23 -0.00715728 	0.0114149 	-1.06999e-22 -0.00706532 	0.0115979 	-1.76615e-22 -0.00664012 	0.0121021 	-2.8375e-22 -0.00626769 	0.012646 	-3.70661e-22 -0.00600849 	0.0130353 	-2.84078e-22 -0.00577739 	0.0134646 	-1.98119e-22 -0.00569922 	0.0139354 	-1.41644e-22 -0.00562103 	0.0141054 	-1.07198e-22 -0.00555778 	0.0142413 	-8.64619e-23 -0.00550674 	0.0143491 	-7.70047e-23 -0.00545707 	0.0144589 	-6.75416e-23 -0.00539929 	0.0145928 	-5.62222e-23 -0.00524092 	0.014948 	-2.59367e-23 -0.00509676 	0.0153271 	4.51352e-24 -0.00496606 	0.0157289 	3.51108e-23 -0.00490932 	0.0160647 	5.93992e-23 -0.00499097 	0.0162128 	6.90034e-23 -0.00456136 	0.0166995 	4.46756e-23 -0.00420165 	0.0172674 	6.11487e-23 -0.00410932 	0.0179125 	2.69852e-22 -0.00428647 	0.0181759 	5.04278e-22 -0.00444656 	0.0184089 	7.21792e-22 -0.00400659 	0.019075 	3.51434e-22 -0.00360358 	0.0197967 	0 -0.00353018 	0.0200324 	0 -0.00369021 	0.0203253 	3.41765e-25 -0.00390638 	0.0206032 	7.6752e-25 -0.0034587 	0.0214665 	1.28189e-25 -0.00331392 	0.0218619 	0 -0.00324686 	0.0221482 	0 -0.00318339 	0.0224515 	0 -0.00337039 	0.0227618 	-1.76951e-22 -0.00309472 	0.0234359 	0 -0.00303851 	0.0237102 	0 -0.0029849 	0.0239984 	0 -0.00293381 	0.0242999 	0 -0.00285083 	0.0248362 	0 -0.00285005 	0.0248421 	0 -0.00284926 	0.0248479 	0 -0.00284848 	0.0248538 	0 -0.0028477 	0.0248597 	0 -0.00284873 	0.024858 	0 -0.00278421 	0.025209 	0 -0.00272534 	0.0255795 	0 -0.00266967 	0.0259692 	0 -0.00261707 	0.0263774 	0 -0.0026886 	0.0262542 	0 -0.00248245 	0.0267419 	0 -0.00242816 	0.0271702 	0 -0.00237686 	0.0276183 	0 -0.00232841 	0.0280854 	0 -0.0025204 	0.0274069 	0 -0.00221072 	0.0281009 	0 -0.0021362 	0.0286099 	0 -0.00208923 	0.029116 	0 -0.00212485 	0.029221 	0 -0.00234887 	0.0283232 	0 -0.00203197 	0.0291538 	0 -0.00185227 	0.029876 	0 -0.00181037 	0.0304395 	0 -0.00194554 	0.0300382 	0 -0.00218018 	0.0290084 	0 -0.0018582 	0.0299786 	0 -0.00158445 	0.0309839 	6.89703e-38 -0.0015496 	0.0316045 	5.40365e-37 -0.00177951 	0.0306619 	1.01286e-36 -0.00202489 	0.0294985 	1.47824e-36 -0.00169951 	0.03061 	9.48134e-37 -0.00138278 	0.0318524 	4.24117e-37 -0.00136808 	0.0322826 	6.8902e-40 -0.00163486 	0.0310885 	1.50024e-39 -0.00189319 	0.029789 	2.2987e-39 -0.00156522 	0.0310434 	1.39905e-39 -0.00124616 	0.0324428 	5.09849e-40 -0.00123674 	0.0326346 	-2.80804e-37 -0.00152253 	0.0313163 	-7.57861e-37 -0.00179926 	0.0298754 	-1.22742e-36 -0.00146832 	0.0312768 	-7.02395e-37 -0.0011468 	0.0328395 	-1.83575e-37 -0.00114092 	0.0327982 	0 -0.00145676 	0.03135 	0 -0.00176214 	0.0297544 	0 -0.00142654 	0.0313149 	0 -0.00110138 	0.0330571 	0 -0.00108848 	0.0327572 	0 -0.00145297 	0.0311633 	0 -0.00180407 	0.0293837 	0 -0.00146134 	0.031133 	0 -0.00115185 	0.0329033 	0 -0.00113092 	0.0323054 	0 -0.00152165 	0.030634 	0 -0.00194431 	0.0286104 	0 -0.00159348 	0.0306146 	0 -0.00134599 	0.0319131 	0 -0.00131234 	0.0311152 	0 -0.0016502 	0.0294579 	0 -0.00217975 	0.0270757 	0 -0.00182737 	0.0294762 	0 -0.00164283 	0.029939 	0 -0.00157863 	0.0287689 	0 -0.00175839 	0.0270918 	0 -0.00243643 	0.0241506 	0 -0.00211038 	0.027244 	0 -0.0019501 	0.0259934 	0 -0.00181091 	0.024138 	0 -0.00167171 	0.0222827 	0 -0.00242949 	0.0186037 	0 -0.00215829 	0.0207897 	0 -0.00183626 	0.0176878 	0 -0.00151423 	0.0145858 	0 -0.0011922 	0.0114839 	0 -0.00126147 	0.00746051 	0 -0.00119069 	0.00855856 	0 -0.000944663 	0.00679013 	0 -0.000698633 	0.00502169 	0 -0.000452602 	0.00325325 	0 0 	0 	0
-0.0343383 	0.000170399 	0 -0.0343078 	0.000327958 	-4.31765e-23 -0.0342287 	0.000503119 	-9.8521e-23 -0.0341648 	0.000678782 	-1.54144e-22 -0.0341162 	0.000854947 	-2.10045e-22 -0.0340484 	0.00102606 	-2.66717e-22 -0.0339305 	0.00116614 	-3.40601e-22 -0.0337806 	0.00132288 	-3.63719e-22 -0.033644 	0.00148072 	-3.85492e-22 -0.0335207 	0.00163969 	-4.05903e-22 -0.0335138 	0.00164964 	-4.07087e-22 -0.0334893 	0.00168829 	-4.13319e-22 -0.0334656 	0.001727 	-4.19511e-22 -0.0334427 	0.00176579 	-4.25664e-22 -0.0334207 	0.00180465 	-4.31777e-22 -0.0333844 	0.00185052 	-4.41077e-22 -0.0331623 	0.00200833 	-3.77223e-22 -0.0329481 	0.00216711 	-3.14769e-22 -0.0327491 	0.00232795 	-2.51691e-22 -0.0325657 	0.00249088 	-1.87981e-22 -0.0322945 	0.00270665 	-1.32314e-22 -0.032049 	0.00285425 	-3.05425e-22 -0.0317884 	0.00301032 	-3.02721e-22 -0.0315433 	0.00316924 	-3.02031e-22 -0.0313139 	0.00333106 	-3.034e-22 -0.030872 	0.00361491 	9.99298e-23 -0.0305975 	0.00373127 	-1.69534e-22 -0.0303078 	0.00388996 	-1.86006e-22 -0.0300342 	0.00405244 	-2.03615e-22 -0.0296854 	0.00426948 	-1.4224e-22 -0.0291564 	0.00460398 	9.28107e-23 -0.0288373 	0.00470752 	4.55099e-23 -0.0285324 	0.00482737 	9.34194e-24 -0.0282484 	0.00499984 	1.58134e-23 -0.0277036 	0.00534079 	2.87638e-23 -0.0271843 	0.0056983 	4.16006e-23 -0.0268445 	0.00580405 	2.24743e-23 -0.0265182 	0.00591505 	3.26962e-24 -0.0259875 	0.00616661 	0 -0.0254777 	0.00652945 	7.51362e-24 -0.0249937 	0.00691654 	1.51702e-23 -0.0246574 	0.00703921 	2.15621e-24 -0.0241362 	0.00729876 	0 -0.0236035 	0.00759903 	0 -0.0231032 	0.00791648 	0 -0.0226756 	0.00822396 	0 -0.0226648 	0.00823329 	0 -0.0226542 	0.00824262 	0 -0.0226435 	0.00825197 	0 -0.022631 	0.00826229 	0 -0.0226147 	0.00827455 	0 -0.0220794 	0.00858934 	0 -0.0215818 	0.0089295 	0 -0.0211188 	0.00929189 	0 -0.0206092 	0.0097146 	0 -0.0199717 	0.0102622 	0 -0.0194606 	0.0105845 	0 -0.0189705 	0.0109416 	0 -0.0183718 	0.0113796 	0 -0.0178248 	0.0118557 	0 -0.0172954 	0.0124086 	0 -0.0172872 	0.0124194 	0 -0.0172791 	0.0124302 	0 -0.0172707 	0.012441 	0 -0.0172599 	0.0124519 	0 -0.017249 	0.0124629 	0 -0.0166247 	0.0129661 	0 -0.0160629 	0.0135257 	0 -0.0155398 	0.0141296 	3.20086e-24 -0.014973 	0.0147423 	2.56909e-23 -0.0142983 	0.0156278 	5.56727e-23 -0.0142377 	0.0157105 	5.58233e-23 -0.0141782 	0.0157941 	5.599e-23 -0.0141169 	0.0158725 	5.55854e-23 -0.0140522 	0.015942 	5.42724e-23 -0.0139911 	0.0160094 	5.3029e-23 -0.0133507 	0.0166981 	1.3281e-22 -0.0127758 	0.0174618 	2.17006e-22 -0.0122494 	0.0181647 	5.98202e-23 -0.0118399 	0.0188963 	-2.91595e-22 -0.0115975 	0.019453 	-5.42901e-22 -0.0114919 	0.01967 	-6.84799e-22 -0.0113894 	0.0198828 	-7.93084e-22 -0.0112899 	0.0200486 	-6.74057e-22 -0.0111929 	0.0202173 	-5.56114e-22 -0.0110844 	0.0204143 	-4.21924e-22 -0.0107818 	0.0209336 	-2.92769e-22 -0.0105048 	0.021485 	-1.64157e-22 -0.0102525 	0.0220666 	-3.61205e-23 -0.0100878 	0.0224884 	2.23238e-23 -0.00997442 	0.0228246 	5.24239e-23 -0.00947965 	0.0236428 	1.94672e-22 -0.00902467 	0.0245232 	3.38282e-22 -0.00872132 	0.0251169 	6.48149e-22 -0.00861666 	0.0257129 	1.35585e-21 -0.00855626 	0.0262761 	2.04447e-21 -0.00822859 	0.0270759 	2.80861e-21 -0.00801356 	0.0276205 	2.47781e-21 -0.00783874 	0.0281027 	1.83274e-21 -0.00767438 	0.0286044 	1.20206e-21 -0.00743589 	0.0294087 	2.48848e-22 -0.00740602 	0.0295227 	1.87123e-22 -0.00737657 	0.0296375 	1.25467e-22 -0.00734752 	0.0297531 	6.38794e-23 -0.007319 	0.0298692 	2.50968e-24 -0.00734513 	0.0298877 	2.57657e-24 -0.00705135 	0.0305951 	-1.50392e-22 -0.00685768 	0.0313469 	-3.65478e-22 -0.00668008 	0.0321329 	-5.84367e-22 -0.00655617 	0.0328737 	-8.06711e-22 -0.00675959 	0.0329941 	-1.0251e-21 -0.00624269 	0.0338791 	-6.90526e-22 -0.00587078 	0.0348124 	-1.83634e-23 -0.00573057 	0.0357582 	1.24478e-21 -0.00594632 	0.0359823 	2.22576e-21 -0.00618942 	0.0360962 	3.14282e-21 -0.00566247 	0.0371667 	1.83178e-21 -0.00515671 	0.0383169 	5.38252e-22 -0.00505667 	0.0389233 	8.8804e-25 -0.00535068 	0.0390584 	3.06446e-24 -0.00562986 	0.0391583 	5.17848e-24 -0.00509481 	0.0404202 	2.33493e-24 -0.00465299 	0.0415828 	0 -0.00458122 	0.0419083 	0 -0.00477412 	0.0420867 	-3.12173e-21 -0.00508482 	0.0421629 	-7.67475e-21 -0.00454409 	0.0436191 	-1.85778e-21 -0.00432559 	0.0443342 	0 -0.00425732 	0.0446945 	0 -0.00422118 	0.0450445 	-6.33152e-25 -0.00455927 	0.0450861 	-9.11009e-24 -0.00407272 	0.0465701 	0 -0.00400683 	0.0469476 	0 -0.00394289 	0.0473407 	0 -0.00388087 	0.047749 	0 -0.0040621 	0.0479079 	2.14886e-21 -0.00376433 	0.0489839 	2.75878e-37 -0.00370503 	0.0493928 	8.10389e-37 -0.00364747 	0.049817 	1.34406e-36 -0.00359162 	0.050256 	1.87692e-36 -0.00360616 	0.0506169 	2.48025e-36 -0.00351872 	0.0510116 	2.68456e-36 -0.00349819 	0.0511903 	2.38073e-36 -0.00347791 	0.0513714 	2.0778e-36 -0.00345789 	0.051555 	1.77577e-36 -0.00343433 	0.0517765 	1.41706e-36 -0.00340722 	0.052036 	1.11568e-36 -0.00338057 	0.0523 	8.14537e-37 -0.0033544 	0.0525685 	5.13611e-37 -0.00332868 	0.0528412 	2.12905e-37 -0.00335484 	0.0527878 	4.07343e-39 -0.0032622 	0.0533956 	-3.69219e-37 -0.00322975 	0.0538698 	-8.35138e-37 -0.00319846 	0.0543555 	-1.30165e-36 -0.00316828 	0.0548525 	-1.76875e-36 -0.00327701 	0.0544124 	-2.23552e-36 -0.00310167 	0.0553654 	-1.71049e-36 -0.00309723 	0.0558855 	-1.18742e-36 -0.00309344 	0.0564122 	-6.64627e-37 -0.00309026 	0.0569454 	-1.42106e-37 -0.00330783 	0.0558538 	0 -0.00304083 	0.0572204 	0 -0.00308256 	0.0578078 	0 -0.00312408 	0.058393 	0 -0.00316539 	0.0589761 	0 -0.00350714 	0.0571224 	0 -0.00316441 	0.0588717 	0 -0.0032322 	0.0596788 	0 -0.00334751 	0.0603552 	0 -0.00353754 	0.0603153 	0 -0.00395146 	0.0581455 	0 -0.00360063 	0.0601497 	0 -0.00359401 	0.0615065 	0 -0.00382828 	0.0623322 	0 -0.00421638 	0.0613538 	0 -0.00472928 	0.0587445 	0 -0.0043769 	0.0611451 	0 -0.00420643 	0.0633508 	0 -0.00463023 	0.0644278 	0 -0.00526456 	0.0618694 	0 -0.00590442 	0.0585264 	0 -0.00557836 	0.0616198 	0 -0.00527249 	0.0649194 	0 -0.00579498 	0.0653446 	0 -0.00661699 	0.0611277 	0 -0.00737771 	0.0564944 	0 -0.00715487 	0.0608956 	0 -0.00697014 	0.0655985 	0 -0.0069102 	0.0638139 	0 -0.00779946 	0.0575443 	0 -0.00855937 	0.0506213 	0 -0.00860748 	0.0576123 	0 -0.0084196 	0.060519 	0 -0.00768377 	0.05523 	0 -0.00741367 	0.0479453 	0 -0.00778193 	0.0371392 	0 -0.00829494 	0.0487436 	0 -0.00680973 	0.040016 	0 -0.00532451 	0.0312884 	0 -0.0038393 	0.0225609 	0 -0.00245565 	0.0107552 	0 -0.00268196 	0.0159099 	0 -0.00218126 	0.0129396 	0 -0.00168055 	0.00996934 	0 -0.00117985 	0.00699907 	0 0 	0 	0