# vtk DataFile Version 2.0
track0
ASCII
DATASET POLYDATA
POINTS 41143 float
0.05 8.57988e-20 2.57396e-18
0.05 0.00217391 -1.05592e-17
0.05 0.00217391 -1.05592e-17
0.05 0.00217391 -1.05592e-17
0.05 0.00217391 -1.05592e-17
0.05 0.00217391 -1.05592e-17
0.05 0.00217391 -1.38778e-17
0.0493333 0.00217502 -3.19189e-18
0.0486667 0.00217719 -2.28984e-18
0.048 0.00218093 -6.29062e-18
0.0473334 0.00218785 -7.80683e-18
0.0466667 0.00219733 0
0.046 0.00220923 3.747e-18
0.0453333 0.00222058 4.30213e-18
0.0446667 0.00223256 6.63228e-18
0.0440001 0.00224756 4.56342e-18
0.0433333 0.00226604 -6.93889e-18
0.0426667 0.00228835 -3.19189e-18
0.0419999 0.00230872 -1.59636e-18
0.0413332 0.00232935 5.82393e-19
0.0406666 0.00235294 -1.14288e-18
0.04 0.00238052 -6.93889e-18
0.0393333 0.00241324 -8.74301e-18
0.0386665 0.00244283 -1.30449e-17
0.0379997 0.00247318 -1.37841e-17
0.0373331 0.00250652 -1.3943e-17
0.0366667 0.00254375 -1.11022e-17
0.036 0.00258732 -1.22125e-17
0.0353331 0.00262681 -1.26956e-17
0.0346663 0.00266859 -1.55276e-17
0.0339997 0.00271357 -1.46261e-17
0.0333333 0.00276188 -1.38778e-17
0.0326667 0.00281732 -1.69309e-17
0.0319998 0.00286968 -1.89428e-17
0.0313331 0.00292547 -2.96842e-17
0.0306668 0.00298483 -2.75725e-17
0.03 0.00304797 -3.19189e-17
0.0294499 0.00310504 -3.51662e-17
0.0288998 0.00316182 -3.77195e-17
0.0283499 0.00322128 -4.04467e-17
0.0278004 0.00328351 -4.39916e-17
0.02738 0.00333333 -4.81782e-17
0.0272373 0.00335083 -3.88201e-17
0.0270947 0.00336854 -4.61153e-17
0.0269521 0.00338645 -4.92471e-17
0.0268095 0.00340457 -4.82155e-17
0.0266667 0.00342294 -5.1124e-17
0.026 0.00351158 -4.8127e-17
0.0253338 0.00360344 -5.06731e-17
0.0246682 0.00370012 -5.11422e-17
0.0240034 0.00380181 -4.48309e-17
0.0233333 0.00390969 -4.67565e-17
0.0226667 0.00403607 -5.18242e-17
0.0219994 0.00415921 -5.13354e-17
0.0213331 0.00428766 -4.8362e-17
0.0206681 0.00442224 -4.92766e-17
0.02 0.00457405 -4.67448e-17
0.0193333 0.00475313 -4.90545e-17
0.0186665 0.00493157 -5.5955e-17
0.0179995 0.00510933 -5.61921e-17
0.017336 0.00529971 -5.64972e-17
0.0166667 0.00552125 -6.80012e-17
0.0160625 0.00575033 -6.37163e-17
0.0154591 0.00598164 -6.75483e-17
0.01486 0.00622369 -6.5157e-17
0.0142678 0.00648235 -7.05689e-17
0.0138779 0.00666667 -7.30713e-17
0.013769 0.00672094 -7.289e-17
0.0136604 0.00677597 -6.85459e-17
0.0135523 0.00683176 -7.39169e-17
0.0134446 0.00688832 -6.93785e-17
0.0133333 0.00694801 -7.12453e-17
0.0126667 0.00731506 -7.87954e-17
0.0120123 0.00770367 -7.73609e-17
0.0113733 0.00811689 -7.71272e-17
0.0107514 0.00855562 -7.49052e-17
0.01 0.00914609 -6.52256e-17
0.00980946 0.00931687 -6.05863e-17
0.00962056 0.00948947 -6.01144e-17
0.00943332 0.00966387 -4.99878e-17
0.00924781 0.00984011 -4.35123e-17
0.00908282 0.01 -4.996e-17
0.00859959 0.0104767 -4.87692e-17
0.00813946 0.0109758 -5.47811e-17
0.00770393 0.0114964 -5.40526e-17
0.00729203 0.012036 -5.30036e-17
0.00666667 0.0129269 -5.68989e-17
0.00661668 0.0130082 -6.11455e-17
0.00656699 0.0130897 -5.56771e-17
0.00651761 0.0131713 -5.85349e-17
0.00646853 0.0132532 -5.79567e-17
0.00642059 0.0133333 -5.68989e-17
0.00602302 0.014 -5.52336e-17
0.00566181 0.014687 -5.81125e-17
0.00533128 0.0153894 -5.91939e-17
0.00502749 0.0161037 -6.39209e-17
0.00479056 0.0166667 -6.50549e-17
0.00451211 0.0173333 -6.60974e-17
0.00427318 0.0180152 -6.53057e-17
0.00406029 0.0187056 -6.09652e-17
0.00385826 0.0193992 -6.06104e-17
0.00369293 0.02 -5.77165e-17
0.00362101 0.0202584 -5.28345e-17
0.00355478 0.0205183 -5.67516e-17
0.00349039 0.0207786 -5.65577e-17
0.00342746 0.0210393 -5.87943e-17
0.00333333 0.0214388 -6.36426e-17
0.00324728 0.0218177 -6.12056e-17
0.00316387 0.0221972 -6.27323e-17
0.00308301 0.0225773 -6.56425e-17
0.00300461 0.0229578 -5.60586e-17
0.00292967 0.0233333 -5.55112e-17
0.00279217 0.024 -4.69069e-17
0.00267016 0.0246697 -4.73283e-17
0.00255587 0.0253407 -4.31607e-17
0.0024487 0.0260129 -4.03737e-17
0.00234582 0.0266667 -4.44089e-17
0.00222974 0.0273333 -3.51108e-17
0.00213253 0.028003 -3.27441e-17
0.00205097 0.0286748 -2.85034e-17
0.00197512 0.0293472 -3.24326e-17
0.00189019 0.03 -3.60822e-17
0.00179074 0.0306667 -3.51108e-17
0.00171136 0.031336 -3.51847e-17
0.00165105 0.0320074 -3.51939e-17
0.00159283 0.0326789 -3.66012e-17
0.00152244 0.0333333 -4.05392e-17
0.00143641 0.034 -3.3608e-17
0.00137185 0.0346691 -3.66059e-17
0.00132705 0.0353398 -3.84443e-17
0.00128317 0.0360105 -3.78136e-17
0.00122526 0.0366667 -3.74288e-17
0.00115042 0.0373333 -4.25084e-17
0.00109861 0.0380022 -3.96776e-17
0.00106077 0.038672 -4.04626e-17
0.00102294 0.0393418 -3.89443e-17
0.000976184 0.04 -3.77079e-17
0.000910909 0.0406667 -3.55175e-17
0.000870564 0.0413353 -3.7043e-17
0.000837886 0.0420044 -4.11549e-17
0.000805208 0.0426734 -4.59017e-17
0.000768758 0.0433333 -5.12403e-17
0.000711817 0.044 -4.7676e-17
0.000682067 0.0446684 -4.67909e-17
0.000653868 0.0453369 -4.497e-17
0.00062567 0.0460054 -3.63688e-17
0.000597778 0.0466667 -3.29144e-17
0.000548161 0.0473333 -3.62318e-17
0.000523878 0.0480014 -3.12625e-17
0.000499595 0.0486695 -3.76829e-17
0.000475312 0.0493375 -3.28974e-17
0.000451233 0.05 -3.96093e-17
0.000408035 0.0506667 -4.2417e-17
0.000387139 0.0513344 -3.9362e-17
0.000366244 0.0520021 -3.6294e-17
0.000345349 0.0526699 -3.49774e-17
0.000324588 0.0533333 -2.96839e-17
0.000286899 0.054 -2.1919e-17
0.000268829 0.0546675 -2.8757e-17
0.00025076 0.055335 -3.21298e-17
0.000232691 0.0560025 -3.22006e-17
0.00021471 0.0566667 -3.5052e-17
0.000181511 0.0573333 -3.49274e-17
0.000165593 0.0580006 -3.27487e-17
0.000149675 0.0586679 -3.49048e-17
0.000133757 0.0593352 -3.35874e-17
0.000117899 0.06 -3.07275e-17
9.43195e-05 0.0605245 -3.60597e-17
8.27845e-05 0.0610494 -4.27992e-17
7.12495e-05 0.0615743 -5.02325e-17
5.97145e-05 0.0620992 -4.54762e-17
3.25947e-05 0.0633333 -4.5851e-17
2.60758e-05 0.0634863 -4.84478e-17
2.27084e-05 0.0636393 -4.32433e-17
1.93411e-05 0.0637923 -3.81257e-17
1.59738e-05 0.0639453 -3.99469e-17
0 0.0646712 -3.38542e-17
0.05 0.00434783 5.94331e-18
0.0493333 0.00434873 7.32959e-18
0.0486667 0.0043527 7.32297e-18
0.048 0.00435907 2.28977e-18
0.0473334 0.0043671 1.58768e-17
0.0466667 0.00437805 1.56074e-17
0.046 0.00439301 2.04397e-17
0.0453334 0.00440963 2.45754e-17
0.0446668 0.0044279 2.31073e-17
0.0440003 0.0044478 2.39008e-17
0.0433333 0.0044716 2.56235e-17
0.0426667 0.00450061 2.58167e-17
0.042 0.00453007 3.2605e-17
0.0413334 0.00456024 3.35147e-17
0.0406669 0.00459206 3.22817e-17
0.04 0.00462947 3.39237e-17
0.0393333 0.00467338 3.1422e-17
0.0386666 0.00471675 3.13498e-17
0.0379999 0.00475958 3.25942e-17
0.0373333 0.0048047 4.15857e-17
0.0366667 0.00485738 4.65279e-17
0.036 0.00491796 3.86367e-17
0.0353332 0.00497727 3.40976e-17
0.0346663 0.00503529 3.51898e-17
0.0339998 0.00509701 3.96775e-17
0.0333333 0.00516771 4.996e-17
0.0326667 0.00524785 4.1217e-17
0.0319998 0.00532629 4.56584e-17
0.0313327 0.005403 4.25017e-17
0.0306664 0.00548572 4.32531e-17
0.03 0.00557859 3.60822e-17
0.0293333 0.0056826 3.35842e-17
0.0286664 0.00578486 2.96295e-17
0.028 0.0058905 3.35406e-17
0.0273348 0.00600345 3.35425e-17
0.0266667 0.0061249 2.08167e-17
0.0261284 0.00623326 2.31009e-17
0.0255901 0.00634172 1.91401e-17
0.0250529 0.00645562 9.23598e-18
0.024517 0.00657522 1.4309e-17
0.0241276 0.00666667 1.25551e-17
0.0239688 0.00670538 1.28196e-17
0.02381 0.00674467 7.5328e-18
0.0236515 0.00678454 1.61235e-17
0.0234931 0.006825 1.63874e-17
0.0233333 0.00686642 1.77085e-17
0.0226667 0.00704422 1.60246e-17
0.0220025 0.00723116 1.7101e-17
0.0213415 0.00742892 1.06369e-17
0.020684 0.00763799 1.36625e-17
0.02 0.0078722 1.2032e-17
0.0193333 0.00812573 8.50197e-18
0.0186708 0.00838978 8.8886e-18
0.0180127 0.00866494 8.33416e-18
0.0173621 0.0089572 1.00633e-17
0.0166667 0.00929822 6.93889e-18
0.0164059 0.00943858 6.50457e-18
0.0161462 0.00958094 7.80573e-18
0.0158877 0.00972556 6.84837e-18
0.0156309 0.00987317 7.27597e-18
0.0154162 0.01 6.93889e-18
0.0149996 0.0102518 1.41685e-18
0.0145891 0.0105133 3.80674e-18
0.0141851 0.0107847 1.35712e-18
0.0137878 0.011066 1.00389e-17
0.0133333 0.0114078 1.37884e-17
0.0128564 0.0117929 4.75679e-18
0.0123897 0.0121905 6.75518e-18
0.0119338 0.0126003 1.06574e-17
0.0114895 0.0130227 1.5841e-17
0.0111807 0.0133333 1.28355e-17
0.0109446 0.0135805 1.83175e-17
0.0107138 0.0138328 2.13174e-17
0.0104884 0.0140898 1.98753e-17
0.0102684 0.0143515 1.99836e-17
0.01 0.014684 1.70351e-17
0.00969578 0.0150805 1.89223e-17
0.0094008 0.015484 2.12066e-17
0.00911501 0.015894 2.57599e-17
0.00883794 0.01631 2.17111e-17
0.00860854 0.0166667 2.08167e-17
0.00822017 0.0172886 2.50443e-17
0.00785939 0.017927 1.83927e-17
0.00752498 0.0185795 1.41458e-17
0.00720905 0.0192412 1.61457e-17
0.00687126 0.02 2.27155e-17
0.00683034 0.0200984 1.70622e-17
0.00679004 0.0201971 1.97251e-17
0.00675024 0.0202959 1.90887e-17
0.00671084 0.020395 1.75845e-17
0.00666667 0.0205073 1.65329e-17
0.00644737 0.0210725 2.00264e-17
0.00623969 0.0216421 2.41814e-17
0.00604298 0.0222155 2.25536e-17
0.00585657 0.0227924 1.86963e-17
0.00568783 0.0233333 1.38778e-17
0.00547847 0.024 1.06859e-17
0.00529159 0.0246733 1.65035e-17
0.00512609 0.0253522 1.99128e-17
0.00496846 0.026033 1.48516e-17
0.00481786 0.0266667 1.2382e-17
0.00465586 0.0273333 1.19773e-17
0.00451486 0.0280048 8.93435e-18
0.00439047 0.0286795 1.12197e-17
0.00427027 0.0293549 1.02005e-17
0.00415457 0.03 3.4896e-18
0.00402983 0.0306667 4.39121e-18
0.00392429 0.0313366 -1.45972e-19
0.00382306 0.0320073 -9.14176e-19
0.00372546 0.0326785 -9.91075e-19
0.00363372 0.0333333 -1.88802e-18
0.00357364 0.0337545 3.59708e-18
0.00351851 0.0341762 1.78923e-18
0.00346473 0.0345982 4.9985e-19
0.00341225 0.0350203 -1.57344e-18
0.00333333 0.0356712 1.38778e-18
0.00331011 0.0358703 2.73688e-18
0.00328715 0.0360694 4.08642e-18
0.00326445 0.0362686 -1.14716e-19
0.003242 0.0364678 -2.92765e-18
0.00321985 0.0366667 6.93889e-18
0.003145 0.0373333 7.21645e-18
0.00307434 0.0380005 1.06157e-17
0.00300656 0.0386679 5.00693e-18
0.00294155 0.0393356 7.3533e-19
0.00287953 0.04 0
[...]
POINT_DATA 41143
 FIELD attributes 1
U 3 41143 float
-6.45073e-19 	-1.70192e-21 	0
-0.0152346 	2.53577e-05 	0 -0.0152346 	2.53577e-05 	0 -0.0152346 	2.53577e-05 	0 -0.0152346 	2.53577e-05 	0 -0.0152346 	2.53577e-05 	0 -0.0152346 	2.53577e-05 	0 -0.0155682 	5.05095e-05 	0 -0.0158056 	8.87839e-05 	-3.91883e-25 -0.0157658 	0.000163571 	-1.87464e-24 -0.0155125 	0.000220574 	-3.36436e-24 -0.0151883 	0.000271076 	-4.85992e-24 -0.015513 	0.000264264 	1.90384e-22 -0.0156956 	0.000282002 	3.20921e-22 -0.0155952 	0.000350934 	3.17085e-22 -0.0153615 	0.000425775 	1.89614e-22 -0.0150661 	0.000504291 	-6.01621e-24 -0.0153681 	0.000469445 	3.44561e-23 -0.0154592 	0.000478429 	5.48508e-23 -0.0153094 	0.000541745 	5.0618e-23 -0.015105 	0.000624873 	2.71077e-23 -0.0148497 	0.000728879 	-1.64451e-23 -0.0151182 	0.000670883 	-1.20657e-23 -0.0150881 	0.000686631 	-2.9133e-23 -0.0149027 	0.000745479 	-5.85229e-23 -0.0147188 	0.000822106 	-8.91811e-23 -0.0145114 	0.000948393 	-1.23285e-22 -0.0147385 	0.000872757 	-9.30858e-23 -0.0145679 	0.000912895 	-8.79944e-23 -0.0143618 	0.000969156 	-8.63113e-23 -0.014172 	0.0010272 	-8.4914e-23 -0.0140177 	0.00116585 	-1.11509e-22 -0.0141159 	0.00110831 	-1.94642e-22 -0.0138875 	0.00116217 	-1.56271e-22 -0.0136749 	0.00121814 	-1.17319e-22 -0.0134786 	0.00127632 	-7.77634e-23 -0.0133423 	0.00138429 	1.08648e-23 -0.0132953 	0.0013723 	-4.69576e-23 -0.01311 	0.00141764 	-3.34399e-23 -0.0129353 	0.00146472 	-1.92429e-23 -0.0127716 	0.00151362 	-4.34243e-24 -0.012655 	0.00155248 	7.62103e-24 -0.0126182 	0.00156637 	1.19099e-23 -0.0125823 	0.00158039 	1.62518e-23 -0.0125472 	0.00159455 	2.0647e-23 -0.0125129 	0.00160885 	2.50958e-23 -0.0124422 	0.00165446 	9.24217e-24 -0.0122033 	0.00168257 	6.85554e-24 -0.0119996 	0.00174307 	7.77605e-24 -0.011812 	0.00180687 	8.66565e-24 -0.0116412 	0.0018741 	9.52301e-24 -0.0112834 	0.00213896 	5.16198e-23 -0.0109323 	0.00201758 	3.82198e-22 -0.0107435 	0.00207124 	4.69178e-22 -0.0105811 	0.00214114 	5.41748e-22 -0.0103173 	0.00234444 	4.40916e-22 -0.00998348 	0.00268172 	1.81911e-22 -0.00967575 	0.00258924 	4.48857e-22 -0.00936641 	0.00249608 	7.15786e-22 -0.00905309 	0.00259756 	7.29981e-22 -0.0087857 	0.00290815 	4.95362e-22 -0.00856545 	0.00324752 	2.61925e-22 -0.00834149 	0.00319776 	4.66563e-22 -0.0080593 	0.00325603 	5.02401e-22 -0.00776109 	0.00339005 	4.35229e-22 -0.00749657 	0.00354361 	3.64684e-22 -0.00734416 	0.00365993 	3.15236e-22 -0.00729639 	0.00369973 	3.01238e-22 -0.00725009 	0.0037405 	2.87093e-22 -0.00720528 	0.00378223 	2.72802e-22 -0.00714697 	0.00383592 	2.71177e-22 -0.00708085 	0.00389854 	2.75834e-22 -0.00667612 	0.00396492 	1.83099e-22 -0.00640897 	0.00414395 	9.88918e-23 -0.00617157 	0.00435424 	1.92869e-23 -0.00590196 	0.00463787 	2.62136e-23 -0.00562384 	0.0050406 	3.23015e-23 -0.00556212 	0.00508206 	1.86334e-23 -0.00550353 	0.00512643 	4.95878e-24 -0.00544716 	0.00517478 	3.02517e-23 -0.00539348 	0.00522673 	7.77185e-23 -0.00534822 	0.00527607 	1.20349e-22 -0.00504082 	0.00546721 	1.21204e-22 -0.00476642 	0.00569791 	1.16097e-22 -0.00453206 	0.00593662 	1.04982e-22 -0.00433605 	0.00617748 	8.83419e-23 -0.00406847 	0.00661566 	5.36693e-23 -0.00405167 	0.00664382 	8.89223e-23 -0.00403526 	0.0066725 	1.23872e-22 -0.00401923 	0.00670168 	1.58519e-22 -0.00401951 	0.00672322 	8.45404e-23 -0.00402164 	0.00674362 	4.01236e-25 -0.00363485 	0.00691372 	-6.79411e-22 -0.00342231 	0.00727196 	-1.12332e-21 -0.00326975 	0.00768817 	-1.50355e-21 -0.00336025 	0.00798469 	-1.19184e-21 -0.00343446 	0.0082228 	-9.45783e-22 -0.00300781 	0.00858293 	-6.21801e-22 -0.00274262 	0.00889459 	-3.65026e-22 -0.00264952 	0.00909692 	-1.98224e-22 -0.00256611 	0.009325 	-2.64951e-23 -0.00269587 	0.00968515 	1.77541e-23 -0.00253028 	0.0099285 	1.44666e-24 -0.0024819 	0.0100358 	0 -0.00244629 	0.0101341 	0 -0.00241221 	0.0102372 	0 -0.00236235 	0.0104019 	0 -0.00231948 	0.010553 	0 -0.00227934 	0.0107131 	0 -0.00224185 	0.010882 	0 -0.0022069 	0.0110592 	0 -0.00227021 	0.0110066 	0 -0.00202274 	0.0111021 	0 -0.00194977 	0.0114484 	0 -0.00188591 	0.0118288 	0 -0.00189605 	0.0120483 	0 -0.0020587 	0.0118238 	0 -0.00173817 	0.0119745 	0 -0.00148947 	0.0122673 	0 -0.00144251 	0.012788 	0 -0.00163436 	0.0125617 	0 -0.00182335 	0.0122231 	0 -0.00148282 	0.0125044 	0 -0.00116066 	0.0129192 	0 -0.00112866 	0.0130174 	0 -0.00136131 	0.0126572 	0 -0.00157394 	0.0121968 	0 -0.00121816 	0.0126244 	0 -0.000883599 	0.0132281 	0 -0.000840843 	0.0128546 	0 -0.00109481 	0.0124048 	0 -0.00132701 	0.0118202 	0 -0.000961068 	0.0124061 	0 -0.000720373 	0.0127537 	0 -0.000695566 	0.0123145 	0 -0.000836685 	0.0117785 	0 -0.00108423 	0.0110734 	0 -0.000713504 	0.011825 	0 -0.000577483 	0.0118236 	0 -0.000555806 	0.0113798 	0 -0.00059993 	0.0108615 	0 -0.000858102 	0.0100467 	0 -0.000488091 	0.0109664 	0 -0.000447804 	0.010616 	0 -0.000429291 	0.0101771 	0 -0.000410777 	0.00973825 	0 -0.000658028 	0.00884151 	0 -0.000349066 	0.00960347 	0 -0.000333603 	0.00917804 	0 -0.00031814 	0.00875262 	0 -0.000302677 	0.0083272 	0 -0.000481861 	0.00743638 	0 -0.00024788 	0.00792138 	0 -0.000235187 	0.00751573 	0 -0.000222493 	0.00711008 	0 -0.000209799 	0.00670443 	0 -0.000332399 	0.00587966 	2.90602e-37 -0.000164844 	0.0060894 	0 -0.000154462 	0.00570588 	0 -0.00014408 	0.00532236 	0 -0.000133698 	0.00493884 	0 -0.000210437 	0.00422571 	2.93224e-40 -9.93689e-05 	0.00416566 	0 -9.06545e-05 	0.00380034 	0 -8.19401e-05 	0.00343503 	0 -7.32257e-05 	0.00306971 	0 -0.00011229 	0.00249774 	-1.05394e-37 -5.10145e-05 	0.00232145 	0 -4.47756e-05 	0.00203754 	0 -3.85366e-05 	0.00175363 	0 -3.22977e-05 	0.00146973 	0 -3.14821e-05 	0.000738508 	0 -1.5079e-05 	0.000685242 	0 -1.31318e-05 	0.000596752 	0 -1.11845e-05 	0.000508262 	0 -9.23725e-06 	0.000419772 	0 0 	0 	0
-0.02963 	4.01714e-05 	0 -0.0298514 	0.000177956 	0 -0.0299601 	0.000285925 	-6.9438e-25 -0.0299383 	0.000361001 	-2.15474e-24 -0.0297512 	0.000488456 	-1.77592e-23 -0.0294339 	0.00066041 	-4.5334e-23 -0.0295658 	0.000737364 	-2.24295e-22 -0.0296246 	0.00081191 	-3.34643e-22 -0.0295667 	0.000882576 	-3.40483e-22 -0.029287 	0.00104494 	-2.30492e-22 -0.0289061 	0.00125791 	-5.84831e-23 -0.0289498 	0.00127956 	-6.82638e-23 -0.0289663 	0.00131109 	-7.69005e-23 -0.0288779 	0.00137839 	-8.13085e-23 -0.0284834 	0.00159793 	-5.54434e-23 -0.028063 	0.00184843 	-2.41051e-23 -0.0280264 	0.00182328 	-4.88564e-23 -0.0279869 	0.00179778 	-7.36086e-23 -0.0278324 	0.00188366 	-9.67864e-23 -0.0273584 	0.00216211 	-9.25789e-23 -0.0269236 	0.00244657 	-8.80059e-23 -0.0268192 	0.00238556 	-2.76637e-22 -0.0267082 	0.00232352 	-4.65362e-22 -0.0264034 	0.00244467 	-4.49723e-22 -0.025936 	0.00275157 	-2.30006e-22 -0.0255108 	0.00306656 	-9.72012e-24 -0.0253538 	0.00298233 	1.52843e-22 -0.0251888 	0.00289651 	3.15339e-22 -0.0246712 	0.0030629 	3.2853e-22 -0.0242285 	0.00337655 	2.40849e-22 -0.0238344 	0.00371862 	1.40503e-22 -0.0236413 	0.00362473 	2.794e-22 -0.023253 	0.00368608 	3.15565e-22 -0.0227462 	0.00386224 	2.79033e-22 -0.022268 	0.00404805 	2.4129e-22 -0.0219219 	0.0044126 	9.31098e-23 -0.0217133 	0.00437519 	8.51874e-23 -0.0213142 	0.00451973 	1.16064e-22 -0.0209339 	0.00467166 	1.47458e-22 -0.0205732 	0.00483132 	1.79391e-22 -0.0203255 	0.0049535 	2.03061e-22 -0.020229 	0.00500758 	2.04915e-22 -0.0201345 	0.00506248 	2.06704e-22 -0.0200421 	0.0051182 	2.08428e-22 -0.0199517 	0.00517475 	2.10087e-22 -0.0197968 	0.00527984 	2.18281e-22 -0.0192924 	0.00543028 	1.97952e-22 -0.0188705 	0.00564545 	2.02207e-22 -0.0184805 	0.00587591 	2.04069e-22 -0.0180467 	0.00618009 	2.23435e-22 -0.0174715 	0.00664426 	2.83317e-22 -0.016982 	0.00676755 	1.60793e-22 -0.016523 	0.00690932 	3.74134e-23 -0.0159641 	0.00717123 	0 -0.015512 	0.00760647 	4.03071e-23 -0.0150826 	0.00811698 	8.14355e-23 -0.0149384 	0.00818823 	3.48844e-23 -0.0147854 	0.00827306 	0 -0.0145974 	0.00839184 	0 -0.0144168 	0.00851601 	0 -0.0142714 	0.00862515 	0 -0.0139438 	0.00888395 	0 -0.0136398 	0.00916207 	0 -0.0133601 	0.0094598 	0 -0.0130192 	0.00979171 	0 -0.0126435 	0.0102081 	0 -0.012292 	0.010471 	0 -0.0119741 	0.0107643 	0 -0.0116419 	0.0110685 	0 -0.0113311 	0.0113985 	0 -0.0111352 	0.011657 	0 -0.0109134 	0.011927 	0 -0.0107056 	0.0122115 	0 -0.010495 	0.0124815 	-1.8289e-23 -0.0102847 	0.0127422 	-5.11507e-23 -0.0100385 	0.0130845 	-9.21486e-23 -0.00978627 	0.0133847 	-9.84465e-23 -0.00955654 	0.0137103 	-1.05846e-22 -0.00935407 	0.0140428 	-1.3671e-22 -0.00919893 	0.0143046 	-2.84314e-22 -0.00908068 	0.014542 	-4.09818e-22 -0.00856132 	0.0151482 	-6.33739e-22 -0.00810232 	0.0158104 	-8.22997e-22 -0.00777519 	0.0162852 	-5.28367e-22 -0.0074832 	0.0168092 	-2.38778e-22 -0.00728139 	0.0175118 	1.43624e-22 -0.00721384 	0.0176603 	2.40744e-22 -0.00715746 	0.0177798 	2.69831e-22 -0.00711081 	0.0178737 	2.38931e-22 -0.00706504 	0.0179689 	2.08365e-22 -0.00701417 	0.0180782 	1.74117e-22 -0.00677209 	0.0185726 	1.58972e-22 -0.00655463 	0.0191083 	1.45274e-22 -0.00636035 	0.0196827 	1.32938e-22 -0.0062872 	0.0201544 	1.35168e-22 -0.00639959 	0.0203786 	1.60545e-22 -0.00583233 	0.0210133 	1.00812e-22 -0.00529922 	0.0217364 	4.21584e-23 -0.00520876 	0.0224955 	1.70436e-22 -0.00543163 	0.0228568 	3.56853e-22 -0.00563206 	0.0231766 	5.29013e-22 -0.00505209 	0.0240564 	2.33716e-22 -0.00458884 	0.0248909 	0 -0.0044847 	0.0252025 	0 -0.00458654 	0.025571 	2.90898e-25 -0.00485474 	0.0259473 	8.18551e-25 -0.00426762 	0.0270909 	2.97363e-26 -0.00414694 	0.0274727 	0 -0.00404962 	0.0278488 	0 -0.00395749 	0.0282493 	0 -0.00408748 	0.0286515 	-1.21582e-22 -0.0038283 	0.0292906 	0 -0.00376613 	0.0295453 	0 -0.00370599 	0.0298109 	0 -0.00364782 	0.030087 	0 -0.00356114 	0.0305287 	0 -0.00353649 	0.0306692 	0 -0.00351223 	0.0308119 	0 -0.00348836 	0.0309566 	0 -0.00346487 	0.0311035 	0 -0.00348722 	0.0310621 	0 -0.0033389 	0.0315211 	0 -0.00324866 	0.0319898 	0 -0.00316286 	0.0324862 	0 -0.00308134 	0.0330091 	0 -0.00319823 	0.032664 	0 -0.00289435 	0.0333399 	0 -0.00280746 	0.0338637 	0 -0.00272462 	0.034416 	0 -0.00265516 	0.0349479 	0 -0.00289956 	0.0339481 	0 -0.00252955 	0.0348678 	0 -0.00238775 	0.0355192 	0 -0.00230742 	0.0361169 	0 -0.00235216 	0.0360819 	0 -0.0025995 	0.0349278 	0 -0.00223555 	0.0360132 	0 -0.0019972 	0.0369396 	0 -0.00191994 	0.0375711 	0 -0.00206323 	0.0369506 	0 -0.00230998 	0.035649 	0 -0.00195693 	0.0368926 	0 -0.00164742 	0.0381559 	7.61217e-38 -0.00157541 	0.0388091 	6.47881e-37 -0.00180063 	0.0376109 	1.22124e-36 -0.00204489 	0.0361711 	1.78776e-36 -0.00170663 	0.0375622 	1.15715e-36 -0.00137576 	0.0390881 	5.32815e-37 -0.00132714 	0.0395561 	7.82589e-40 -0.00157583 	0.0380851 	1.6634e-39 -0.00181851 	0.036517 	2.53393e-39 -0.00149755 	0.0380429 	1.57814e-39 -0.00118325 	0.0397065 	6.31415e-40 -0.00115199 	0.0399788 	-3.96561e-37 -0.00140387 	0.0383941 	-9.75819e-37 -0.00165012 	0.0367048 	-1.54879e-36 -0.00134721 	0.0383547 	-9.2604e-37 -0.00105042 	0.0401441 	-3.08911e-37 -0.00103862 	0.0402554 	0 -0.00130552 	0.038561 	0 -0.00156659 	0.0367492 	0 -0.00128075 	0.0385197 	0 -0.00100085 	0.0404325 	0 -0.0010058 	0.0403898 	0 -0.00130848 	0.038577 	0 -0.00160416 	0.0366231 	0 -0.00133347 	0.0385284 	0 -0.00106917 	0.0405826 	0 -0.00107702 	0.0403421 	0 -0.00144807 	0.0383758 	0 -0.00180885 	0.0362241 	0 -0.00155304 	0.0383159 	0 -0.0013052 	0.0405705 	0 -0.00128152 	0.0399609 	0 -0.00175782 	0.0377776 	0 -0.00222497 	0.0353046 	0 -0.00199149 	0.0377112 	0 -0.00180392 	0.0395461 	0 -0.00175784 	0.0385358 	0 -0.00221866 	0.0362645 	0 -0.00283678 	0.0332232 	0 -0.00265351 	0.0362329 	0 -0.00250959 	0.0370028 	0 -0.00239414 	0.0353005 	0 -0.00262679 	0.0328265 	0 -0.00341876 	0.0287716 	0 -0.00335746 	0.0330009 	0 -0.00309146 	0.0309517 	0 -0.00279392 	0.0279727 	0 -0.00249639 	0.0249938 	0 -0.00318273 	0.0195914 	0 -0.00308438 	0.0222186 	0 -0.00242317 	0.0174555 	0 -0.00176197 	0.0126925 	0 -0.00110076 	0.00792946 	0 -0.000163594 	0.000786003 	0 -0.000172485 	0.00100097 	0 -0.000136549 	0.000792423 	0 -0.000100612 	0.000583876 	0 -6.46761e-05 	0.00037533 	0 0 	0 	0
-0.0430662 	4.29348e-05 	0 -0.0430352 	0.000255046 	-2.01378e-23 -0.0429532 	0.000488245 	-4.59886e-23 -0.0428919 	0.000721954 	-7.1978e-23 -0.0428513 	0.000956168 	-9.81057e-23 -0.0427869 	0.00118086 	-1.2462e-22 -0.0426396 	0.00137663 	-1.53363e-22 -0.0424545 	0.0015955 	-1.53692e-22 -0.0422892 	0.00181589 	-1.53231e-22 -0.042144 	0.00203781 	-1.51972e-22 -0.0420933 	0.00212841 	-1.51135e-22 -0.0420805 	0.00215531 	-1.51407e-22 -0.0420681 	0.00218223 	-1.51674e-22 -0.0420559 	0.00220917 	-1.51937e-22 -0.0420441 	0.00223614 	-1.52196e-22 -0.042023 	0.00226773 	-1.53245e-22 -0.0417459 	0.00247537 	-1.25463e-22 -0.0414844 	0.00268457 	-9.76566e-23 -0.0412435 	0.00289644 	-6.9665e-23 -0.0410233 	0.00311102 	-4.14855e-23 -0.0407108 	0.00338733 	-1.86112e-23 -0.0403972 	0.00358376 	-3.41542e-24 -0.0400743 	0.0037874 	5.11681e-24 -0.039772 	0.00399476 	1.3874e-23 -0.0394908 	0.0042059 	2.28609e-23 -0.0389673 	0.00456688 	1.6932e-23 -0.0386064 	0.00472367 	2.11486e-22 -0.0382456 	0.00492851 	2.55109e-22 -0.037906 	0.00513827 	3.00028e-22 -0.0374884 	0.00541211 	2.75169e-22 -0.0368467 	0.00584251 	7.39803e-23 -0.0364275 	0.00597578 	4.75004e-23 -0.0360325 	0.00613261 	3.02944e-23 -0.0356801 	0.00635306 	4.23303e-23 -0.0350271 	0.00678523 	7.49473e-23 -0.0343994 	0.00724397 	1.07849e-22 -0.0339546 	0.00737538 	5.87393e-23 -0.0335276 	0.00751356 	9.42761e-24 -0.0328675 	0.0078297 	7.50179e-26 -0.0322541 	0.00829643 	1.67243e-23 -0.031674 	0.00879169 	3.32184e-23 -0.0312367 	0.00894068 	5.13085e-24 -0.0305891 	0.00926409 	0 -0.029927 	0.00964332 	0 -0.0293074 	0.0100445 	0 -0.0287457 	0.0104586 	0 -0.028739 	0.0104647 	0 -0.0287323 	0.0104707 	0 -0.0287256 	0.0104768 	0 -0.0287177 	0.0104836 	0 -0.0287074 	0.0104916 	0 -0.0280459 	0.0108888 	0 -0.0274307 	0.0113157 	0 -0.0268605 	0.0117708 	0 -0.0262378 	0.012303 	0 -0.025455 	0.0129984 	0 -0.0248168 	0.0133924 	0 -0.024211 	0.0138291 	0 -0.0234665 	0.0143771 	0 -0.0227893 	0.0149734 	0 -0.0220915 	0.0157166 	0 -0.0220908 	0.0157173 	0 -0.0220901 	0.015718 	0 -0.0220892 	0.0157187 	0 -0.0220882 	0.0157195 	0 -0.0220873 	0.0157202 	0 -0.0213234 	0.0163486 	0 -0.0206275 	0.0170406 	0 -0.0199874 	0.0177918 	-1.10708e-27 -0.0192739 	0.0185604 	-1.30496e-26 -0.0184375 	0.019659 	-2.87805e-26 -0.0183443 	0.0197833 	-2.88517e-26 -0.0182531 	0.0199097 	-2.89355e-26 -0.0181585 	0.0200284 	-6.16132e-24 -0.0180581 	0.0201358 	-2.07795e-23 -0.0179648 	0.0202394 	-3.46461e-23 -0.0171853 	0.0210795 	-2.98042e-23 -0.0164853 	0.0220097 	-2.15296e-23 -0.0158304 	0.022872 	-5.04463e-23 -0.0152565 	0.023742 	-1.10894e-22 -0.0148551 	0.024637 	-1.91873e-22 -0.0147621 	0.0248317 	-2.56377e-22 -0.0146706 	0.0250226 	-3.06107e-22 -0.014578 	0.0251706 	-2.43589e-22 -0.0144871 	0.0253204 	-1.81489e-22 -0.0143888 	0.0254877 	-1.13485e-22 -0.0139356 	0.0262101 	2.48249e-22 -0.0135252 	0.0269861 	5.97695e-22 -0.0131558 	0.0278126 	9.3522e-22 -0.0129139 	0.0284066 	6.43369e-22 -0.0127455 	0.0288886 	2.2676e-22 -0.0120976 	0.0299627 	-1.27349e-22 -0.0115039 	0.0311206 	-4.86249e-22 -0.0111282 	0.0318152 	-8.47358e-23 -0.0108924 	0.0325842 	6.61561e-22 -0.0107983 	0.033332 	1.63261e-21 -0.0104531 	0.0341774 	2.27789e-21 -0.0102174 	0.0347459 	2.04107e-21 -0.0100197 	0.0352468 	1.55723e-21 -0.00983147 	0.0357656 	1.08351e-21 -0.0095717 	0.0365434 	4.10088e-22 -0.00948068 	0.0368466 	3.07307e-22 -0.00939222 	0.0371548 	2.04789e-22 -0.00930626 	0.0374679 	1.0253e-22 -0.00922613 	0.0377797 	2.86254e-24 -0.00929125 	0.0378335 	3.03387e-24 -0.008779 	0.0387606 	-8.41766e-23 -0.00850727 	0.0397486 	-2.94607e-22 -0.00825752 	0.0407837 	-5.08968e-22 -0.00816184 	0.041591 	-7.26732e-22 -0.00840065 	0.0417446 	-9.39185e-22 -0.00772636 	0.0429079 	-6.15048e-22 -0.00712973 	0.0441528 	-1.60587e-22 -0.00695155 	0.0453047 	1.24543e-21 -0.00724626 	0.0454666 	2.3681e-21 -0.00752427 	0.0455942 	3.45259e-21 -0.00684561 	0.0469858 	1.92023e-21 -0.00619386 	0.0484807 	4.0887e-22 -0.00603378 	0.049108 	6.54994e-25 -0.00635755 	0.0492312 	3.63961e-24 -0.00666535 	0.0493151 	6.54335e-24 -0.00598733 	0.0509271 	2.70364e-24 -0.00548707 	0.0522416 	0 -0.00537935 	0.0526356 	0 -0.00551011 	0.0528462 	-2.9997e-21 -0.00583707 	0.052866 	-8.50809e-21 -0.00516528 	0.0546834 	-1.61314e-21 -0.00492775 	0.0554253 	0 -0.00482357 	0.0558442 	0 -0.00472205 	0.0562842 	0 -0.00505625 	0.0562209 	-1.07946e-23 -0.00448909 	0.0579359 	0 -0.00438713 	0.0583499 	0 -0.00428753 	0.0587852 	0 -0.00419024 	0.0592413 	0 -0.00433605 	0.0593368 	2.53965e-21 -0.0039745 	0.0605639 	3.30211e-37 -0.00388001 	0.0609865 	9.66572e-37 -0.0037875 	0.0614296 	1.60182e-36 -0.00369693 	0.0618927 	2.23597e-36 -0.00369609 	0.062201 	2.98432e-36 -0.00354306 	0.0628108 	3.24631e-36 -0.00348837 	0.0630872 	2.6973e-36 -0.00343438 	0.0633719 	2.15133e-36 -0.00338108 	0.0636646 	1.60836e-36 -0.00331 	0.0640707 	8.79044e-37 -0.00328695 	0.0642097 	6.95083e-37 -0.00326402 	0.0643503 	5.11199e-37 -0.00324123 	0.0644924 	3.27394e-37 -0.00321857 	0.064636 	1.43665e-37 -0.00321835 	0.0646267 	4.48447e-39 -0.00313382 	0.0651224 	-5.18388e-37 -0.00307093 	0.0655505 	-1.08666e-36 -0.00300921 	0.0659939 	-1.65573e-36 -0.00294864 	0.0664523 	-2.22558e-36 -0.00297842 	0.0662512 	-2.79552e-36 -0.0028585 	0.0670592 	-2.17277e-36 -0.00282832 	0.067494 	-1.55135e-36 -0.0027988 	0.0679382 	-9.3034e-37 -0.00276993 	0.0683914 	-3.09734e-37 -0.00288448 	0.0676643 	0 -0.00273852 	0.0688184 	0 -0.00276184 	0.0692773 	0 -0.00278509 	0.0697352 	0 -0.00280828 	0.0701922 	0 -0.00301809 	0.0689033 	0 -0.00283939 	0.070457 	0 -0.0029491 	0.0709741 	0 -0.00305742 	0.0714728 	0 -0.0031644 	0.0719536 	0 -0.00349421 	0.0699754 	0 -0.00324627 	0.0720429 	0 -0.00349359 	0.0726769 	0 -0.00373671 	0.0732639 	0 -0.00400329 	0.0734234 	0 -0.00446184 	0.0707981 	0 -0.00422837 	0.0732048 	0 -0.00450608 	0.0744533 	0 -0.00495748 	0.0752102 	0 -0.0054674 	0.0743349 	0 -0.00606542 	0.0710356 	0 -0.00588215 	0.0740454 	0 -0.0060443 	0.0764343 	0 -0.00680421 	0.0775068 	0 -0.00756904 	0.0744501 	0 -0.00830462 	0.0698901 	0 -0.00824332 	0.0741194 	0 -0.00820262 	0.0785261 	0 -0.00907615 	0.0787696 	0 -0.00990676 	0.0724131 	0 -0.0106421 	0.065508 	0 -0.0108524 	0.0722595 	0 -0.0111159 	0.0793488 	0 -0.0105686 	0.075696 	0 -0.0110374 	0.0654145 	0 -0.0113102 	0.0543409 	0 -0.0120343 	0.0664997 	0 -0.0115162 	0.0668308 	0 -0.0100086 	0.0580819 	0 -0.00850096 	0.049333 	0 -0.00720482 	0.031268 	0 -0.00791114 	0.0462561 	0 -0.00642623 	0.0375739 	0 -0.00494132 	0.0288917 	0 -0.00345641 	0.0202095 	0 0 	0 	0