# vtk DataFile Version 2.0
track0
ASCII
DATASET POLYDATA
POINTS 41144 float
0.05 8.57988e-20 2.57396e-18
0.05 0.00217391 -1.05592e-17
0.05 0.00217391 -1.05592e-17
0.05 0.00217391 -1.05592e-17
0.05 0.00217391 -1.05592e-17
0.05 0.00217391 -1.05592e-17
0.05 0.00217391 -1.38778e-17
0.0493333 0.00217502 -6.66134e-18
0.0486667 0.00217718 -6.10623e-18
0.048 0.00218093 -6.11715e-18
0.0473334 0.00218784 -7.80683e-18
0.0466667 0.00219732 -6.93889e-18
0.046 0.00220922 2.77556e-19
0.0453333 0.00222058 2.91435e-18
0.0446667 0.00223255 5.07102e-18
0.0440001 0.00224755 5.25726e-18
0.0433333 0.00226603 4.16334e-18
0.0426667 0.00228835 7.91034e-18
0.0419999 0.00230871 1.08936e-17
0.0413332 0.00232934 1.13377e-17
0.0406666 0.00235293 9.95937e-18
0.04 0.00238051 1.11022e-17
0.0393333 0.00241323 1.06859e-17
0.0386665 0.00244282 7.7718e-18
0.0379997 0.00247317 8.07339e-18
0.0373331 0.00250651 1.03433e-17
0.0366667 0.00254374 1.38778e-17
0.036 0.00258731 1.27676e-17
0.0353331 0.0026268 1.54069e-17
0.0346663 0.00266858 1.43096e-17
0.0339997 0.00271357 1.69891e-17
0.0333333 0.00276187 1.11022e-17
0.0326667 0.00281731 1.22125e-17
0.0319998 0.00286968 1.54048e-17
0.0313331 0.00292546 1.75003e-17
0.0306668 0.00298482 1.40609e-17
0.03 0.00304796 1.80411e-17
0.0294499 0.00310503 1.61817e-17
0.0288998 0.00316182 1.36284e-17
0.0283499 0.00322128 3.91889e-18
0.0278004 0.0032835 1.01317e-17
0.0273799 0.00333333 1.78172e-18
0.0272373 0.00335083 9.75205e-18
0.0270946 0.00336854 1.21713e-17
0.026952 0.00338645 7.12877e-19
0.0268095 0.00340457 1.74451e-18
0.0266667 0.00342293 1.1326e-17
0.026 0.00351158 1.70986e-17
0.0253338 0.00360344 1.59403e-17
0.0246682 0.00370012 1.75528e-17
0.0240034 0.00380181 1.90069e-17
0.0233333 0.00390969 1.43057e-17
0.0226667 0.00403607 1.20136e-17
0.0219994 0.00415921 1.59719e-17
0.0213331 0.00428766 1.51289e-17
0.0206681 0.00442224 1.66429e-17
0.02 0.00457405 2.26442e-17
0.0193333 0.00475313 1.47833e-17
0.0186665 0.00493157 1.3087e-17
0.0179995 0.00510933 1.25896e-17
0.017336 0.00529971 1.60143e-17
0.0166667 0.00552125 6.93889e-18
0.0160625 0.00575034 9.836e-18
0.0154591 0.00598164 3.92235e-18
0.0148599 0.00622369 6.86159e-20
0.0142678 0.00648235 -3.26162e-18
0.0138779 0.00666667 -1.75602e-17
0.013769 0.00672094 -1.18277e-17
0.0136604 0.00677597 -1.71981e-17
0.0135523 0.00683176 -3.1402e-18
0.0134446 0.00688831 -1.34337e-17
0.0133333 0.006948 -1.43463e-17
0.0126667 0.00731505 -1.91209e-17
0.0120123 0.00770365 -1.90742e-17
0.0113733 0.00811686 -1.77129e-17
0.0107514 0.00855558 -1.22818e-17
0.01 0.00914604 -5.55112e-18
0.00980944 0.00931683 -3.68732e-18
0.00962052 0.00948944 -4.60318e-18
0.00943327 0.00966385 -1.11301e-17
0.00924775 0.0098401 -4.65469e-18
0.00908274 0.01 0
0.00859952 0.0104767 -5.74814e-18
0.00813941 0.0109757 -8.63762e-18
0.00770389 0.0114963 -1.27663e-17
0.007292 0.0120358 -1.76151e-17
0.00666667 0.0129267 -2.498e-17
0.00661665 0.013008 -2.50633e-17
0.00656693 0.0130895 -2.79217e-17
0.00651752 0.0131712 -2.93917e-17
0.00646841 0.0132531 -2.88132e-17
0.00642045 0.0133333 -2.498e-17
0.00602286 0.014 -2.47025e-17
0.00566164 0.0146871 -2.82752e-17
0.00533111 0.0153894 -2.48468e-17
0.00502731 0.0161037 -2.7709e-17
0.00479038 0.0166667 -3.17487e-17
0.00451192 0.0173333 -3.4179e-17
0.00427298 0.0180152 -3.78951e-17
0.00406009 0.0187056 -3.32097e-17
0.00385805 0.0193992 -3.70182e-17
0.00369272 0.02 -3.27344e-17
0.00362084 0.0202582 -2.50773e-17
0.00355465 0.020518 -1.75471e-17
0.00349029 0.0207782 -2.25577e-17
0.00342739 0.0210387 -1.92435e-17
0.00333333 0.0214379 -2.61635e-17
0.00324723 0.021817 -2.51234e-17
0.00316378 0.0221967 -2.38746e-17
0.00308287 0.0225769 -1.70704e-17
0.00300443 0.0229576 -1.30377e-17
0.00292946 0.0233333 -2.08167e-17
0.00279195 0.024 -1.4988e-17
0.00266994 0.0246697 -7.42963e-18
0.00255566 0.0253407 -1.19351e-17
0.00244849 0.0260129 -1.12309e-17
0.0023456 0.0266667 -6.93889e-18
0.00222953 0.0273333 2.35922e-18
0.00213232 0.028003 2.1569e-19
0.00205076 0.0286748 4.45603e-18
0.00197491 0.0293472 1.56833e-18
0.00188998 0.03 0
0.00179053 0.0306667 -4.57967e-18
0.00171116 0.031336 -5.69437e-18
0.00165085 0.0320074 -7.09175e-18
0.00159263 0.0326789 -1.09276e-17
0.00152225 0.0333333 -1.12204e-17
0.00143622 0.034 -6.02402e-18
0.00137166 0.0346691 -8.50146e-18
0.00132686 0.0353398 -6.11697e-18
0.00128299 0.0360105 -5.20105e-18
0.00122509 0.0366667 -3.42796e-18
0.00115025 0.0373333 -1.80824e-19
0.00109844 0.0380022 2.82343e-18
0.00106061 0.038672 1.86467e-18
0.00102278 0.0393418 -7.80704e-19
0.000976025 0.04 -2.3763e-19
0.000910754 0.0406667 4.72829e-18
0.000870415 0.0413353 7.71309e-18
0.00083774 0.0420044 2.56013e-18
0.000805065 0.0426734 -2.78693e-19
0.000768621 0.0433333 8.01658e-19
0.000711685 0.044 2.97814e-18
0.000681941 0.0446684 2.4755e-18
0.000653746 0.0453369 8.26675e-19
0.00062555 0.0460054 3.18285e-18
0.000597661 0.0466667 5.94359e-18
0.000548051 0.0473333 -1.71066e-18
0.000523771 0.0480014 -2.11892e-18
0.000499492 0.0486695 -4.72312e-18
0.000475213 0.0493375 -4.4479e-18
0.000451137 0.05 -6.30241e-18
0.000407946 0.0506667 -3.38553e-18
0.000387055 0.0513344 8.83765e-19
0.000366163 0.0520021 -2.64035e-18
0.000345272 0.0526699 -3.05846e-18
0.000324515 0.0533333 -1.16427e-17
0.000286834 0.054 9.79493e-19
0.000268769 0.0546675 3.86441e-19
0.000250705 0.055335 2.56466e-18
0.00023264 0.0560025 1.10613e-18
0.000214664 0.0566667 -3.57488e-19
0.000181474 0.0573333 1.14119e-19
0.000165561 0.0580006 5.58012e-19
0.000149648 0.0586679 6.03472e-18
0.000133735 0.0593352 3.18871e-18
0.000117883 0.06 2.57924e-18
9.43062e-05 0.0605246 4.87992e-18
8.27736e-05 0.0610496 5.07954e-18
7.12409e-05 0.0615746 6.66693e-18
5.97083e-05 0.0620996 5.52402e-18
3.2607e-05 0.0633333 1.24357e-17
2.60856e-05 0.0634864 1.17473e-17
2.27171e-05 0.0636395 9.14566e-18
1.93487e-05 0.0637926 9.05935e-18
1.59802e-05 0.0639458 -1.08836e-18
0 0.0646723 1.05565e-17
0.05 0.00434783 5.94331e-18
0.0493333 0.00434873 4.55403e-18
0.0486667 0.0043527 2.46575e-18
0.048 0.00435906 5.55043e-19
0.0473334 0.0043671 3.73369e-18
0.0466667 0.00437804 1.07502e-17
0.046 0.004393 1.00314e-17
0.0453334 0.00440962 9.30985e-18
0.0446668 0.00442789 6.45398e-18
0.0440003 0.00444779 6.90039e-18
0.0433333 0.00447158 6.19447e-18
0.0426667 0.00450059 7.08161e-18
0.042 0.00453006 9.35955e-18
0.0413334 0.00456023 7.84083e-18
0.0406669 0.00459204 3.83202e-18
0.04 0.00462945 6.1682e-18
0.0393333 0.00467336 8.87063e-18
0.0386666 0.00471673 1.1574e-17
0.0379999 0.00475956 1.09102e-17
0.0373333 0.00480468 1.03607e-17
0.0366667 0.00485736 1.25275e-17
0.036 0.00491794 8.79967e-18
0.0353332 0.00497725 6.99275e-18
0.0346663 0.00503527 5.74267e-18
0.0339998 0.00509698 6.63083e-18
0.0333333 0.00516768 4.16334e-18
0.0326667 0.00524782 2.35922e-18
0.0319998 0.00532626 -1.17911e-18
0.0313327 0.00540297 -2.86127e-18
0.0306664 0.0054857 -3.93135e-18
0.03 0.00557857 -1.38778e-17
0.0293333 0.00568258 -7.35523e-18
0.0286664 0.00578483 -1.20038e-17
0.028 0.00589047 -1.22561e-17
0.0273348 0.00600342 -1.70843e-17
0.0266667 0.00612488 -1.11022e-17
0.0261283 0.00623323 -1.15935e-17
0.02559 0.0063417 -1.13909e-17
0.0250529 0.00645561 -1.0106e-17
0.0245169 0.00657521 -1.48346e-17
0.0241275 0.00666667 -1.52003e-17
0.0239687 0.00670538 -9.38469e-18
0.02381 0.00674466 -9.12042e-18
0.0236514 0.00678452 -4.69306e-18
0.023493 0.00682497 -7.20483e-18
0.0233333 0.00686639 -1.00471e-17
0.0226667 0.00704419 -1.03432e-17
0.0220025 0.00723113 -9.26669e-18
0.0213415 0.00742889 -1.08737e-17
0.020684 0.00763795 -1.16646e-17
0.02 0.00787217 -1.9887e-17
0.0193333 0.00812569 -1.4223e-17
0.0186708 0.00838973 -1.2275e-17
0.0180127 0.00866489 -1.26236e-17
0.0173621 0.00895715 -1.21411e-17
0.0166667 0.00929817 -1.11022e-17
0.0164058 0.00943853 -1.15366e-17
0.0161461 0.0095809 -1.16231e-17
0.0158876 0.00972554 -1.5356e-17
0.0156308 0.00987316 -2.11733e-17
0.0154161 0.01 -2.63678e-17
0.0149995 0.0102517 -2.6549e-17
0.0145891 0.0105133 -2.11732e-17
0.014185 0.0107847 -2.848e-17
0.0137878 0.0110659 -1.70228e-17
0.0133333 0.0114077 -9.80364e-18
0.0128563 0.0117928 -1.32844e-17
0.0123896 0.0121904 -1.19799e-17
0.0119337 0.0126003 -1.12e-17
0.0114894 0.0130227 -1.05271e-17
0.0111805 0.0133333 -5.55105e-18
0.0109444 0.0135805 -8.04906e-18
0.0107137 0.0138327 -3.66172e-18
0.0104883 0.0140897 -4.06392e-18
0.0102684 0.0143513 -8.46605e-18
0.01 0.0146838 -7.24895e-18
0.00969574 0.0150804 -1.02212e-17
0.00940071 0.0154839 -9.98014e-19
0.00911488 0.0158939 -1.99543e-18
0.00883777 0.0163099 2.28244e-18
0.00860836 0.0166667 6.93889e-18
0.00822002 0.0172886 4.05376e-18
0.00785927 0.0179268 -5.026e-18
0.00752489 0.0185793 -4.76317e-18
0.00720899 0.019241 1.85564e-19
0.00687106 0.02 5.10565e-19
0.00683018 0.0200983 -7.91822e-18
0.00678992 0.0201969 -5.08155e-18
0.00675015 0.0202956 -3.40575e-19
0.0067108 0.0203946 3.35917e-18
0.00666667 0.0205068 -2.89734e-18
0.00644732 0.0210721 5.96465e-19
0.00623959 0.0216418 3.4073e-18
0.00604284 0.0222153 5.90001e-18
0.00585639 0.0227923 1.17577e-17
0.00568762 0.0233333 6.93889e-18
0.00547826 0.024 1.41553e-17
0.00529138 0.0246733 1.44218e-17
0.00512587 0.0253522 1.86121e-17
0.00496825 0.026033 1.69329e-17
0.00481766 0.0266667 1.41162e-17
0.00465566 0.0273333 1.96096e-17
0.00451465 0.0280048 1.91696e-17
0.00439027 0.0286795 1.91994e-17
0.00427007 0.0293549 1.36696e-17
0.00415437 0.03 1.25105e-17
0.00402964 0.0306667 1.68815e-17
0.00392411 0.0313366 1.51199e-17
0.00382288 0.0320073 5.67777e-18
0.00372528 0.0326785 7.3356e-18
0.00363354 0.0333333 2.27561e-18
0.0035735 0.0337542 2.72958e-18
0.0035184 0.0341758 -9.86888e-19
0.00346464 0.0345975 4.6622e-18
0.00341219 0.0350194 7.6004e-18
0.00333333 0.0356699 2.08167e-17
0.00331008 0.0358692 1.24513e-17
0.00328709 0.0360686 2.07397e-17
0.00326435 0.036268 1.37629e-17
0.00324188 0.0364675 2.06644e-17
0.00321969 0.0366667 2.498e-17
0.00314485 0.0373333 1.97065e-17
0.00307419 0.0380005 2.34527e-17
0.00300642 0.0386679 2.44356e-17
0.00294141 0.0393356 2.84907e-17
0.0028794 0.04 2.91434e-17
0.00281412 0.0406667 2.59515e-17
[...]
POINT_DATA 41144
 FIELD attributes 1
U 3 41144 float
-6.45205e-19 	-1.70299e-21 	0
-0.0152378 	2.53283e-05 	0 -0.0152378 	2.53283e-05 	0 -0.0152378 	2.53283e-05 	0 -0.0152378 	2.53283e-05 	0 -0.0152378 	2.53283e-05 	0 -0.0152378 	2.53283e-05 	0 -0.0155715 	5.04929e-05 	0 -0.0158089 	8.87818e-05 	-3.91936e-25 -0.0157692 	0.000163589 	-1.87491e-24 -0.0155158 	0.000220602 	-3.36485e-24 -0.0151916 	0.000271111 	-4.86064e-24 -0.0155163 	0.000264303 	1.90416e-22 -0.015699 	0.000282049 	3.20978e-22 -0.0155986 	0.000350999 	3.17141e-22 -0.0153647 	0.000425856 	1.89646e-22 -0.0150694 	0.000504387 	-6.01769e-24 -0.0153714 	0.000469537 	3.44847e-23 -0.0154625 	0.000478525 	5.49021e-23 -0.0153127 	0.000541857 	5.06818e-23 -0.0151083 	0.000625005 	2.71691e-23 -0.0148529 	0.000729033 	-1.64003e-23 -0.0151214 	0.000671026 	-1.20328e-23 -0.0150914 	0.000686777 	-2.90919e-23 -0.0149059 	0.00074564 	-5.8463e-23 -0.0147219 	0.000822286 	-8.90991e-23 -0.0145145 	0.000948601 	-1.23171e-22 -0.0147417 	0.000872949 	-9.30002e-23 -0.0145711 	0.000913095 	-8.79206e-23 -0.0143649 	0.00096937 	-8.62477e-23 -0.0141751 	0.00102742 	-8.48603e-23 -0.0140208 	0.00116611 	-1.1144e-22 -0.014119 	0.00110856 	-1.94569e-22 -0.0138905 	0.00116243 	-1.56216e-22 -0.0136778 	0.00121841 	-1.17282e-22 -0.0134815 	0.0012766 	-7.77441e-23 -0.0133452 	0.0013846 	1.08623e-23 -0.0132982 	0.00137261 	-4.69486e-23 -0.0131128 	0.00141796 	-3.34336e-23 -0.0129381 	0.00146505 	-1.92394e-23 -0.0127744 	0.00151396 	-4.34186e-24 -0.0126578 	0.00155284 	7.61916e-24 -0.012621 	0.00156672 	1.19068e-23 -0.012585 	0.00158074 	1.62475e-23 -0.0125499 	0.00159491 	2.06414e-23 -0.0125156 	0.00160921 	2.5089e-23 -0.0124449 	0.00165483 	9.23984e-24 -0.012206 	0.00168295 	6.85368e-24 -0.0120022 	0.00174346 	7.77368e-24 -0.0118146 	0.00180727 	8.66278e-24 -0.0116438 	0.00187452 	9.51964e-24 -0.0112859 	0.00213944 	5.16014e-23 -0.0109347 	0.00201802 	3.82063e-22 -0.0107458 	0.0020717 	4.69013e-22 -0.0105834 	0.00214162 	5.41557e-22 -0.0103196 	0.00234496 	4.40757e-22 -0.00998569 	0.00268233 	1.81837e-22 -0.00967788 	0.00258982 	4.48654e-22 -0.00936845 	0.00249662 	7.15454e-22 -0.00905506 	0.00259813 	7.29636e-22 -0.00878764 	0.00290879 	4.95118e-22 -0.00856736 	0.00324824 	2.6178e-22 -0.00834334 	0.00319846 	4.66279e-22 -0.00806108 	0.00325674 	5.0208e-22 -0.00776281 	0.00339078 	4.34936e-22 -0.00749824 	0.00354437 	3.64421e-22 -0.0073458 	0.00366071 	3.14994e-22 -0.00729802 	0.00370052 	3.01003e-22 -0.00725171 	0.00374129 	2.86865e-22 -0.00720689 	0.00378304 	2.72581e-22 -0.00714857 	0.00383674 	2.70955e-22 -0.00708244 	0.00389937 	2.75608e-22 -0.00667762 	0.00396574 	1.82951e-22 -0.00641041 	0.0041448 	9.88106e-23 -0.00617296 	0.00435513 	1.92677e-23 -0.0059033 	0.00463881 	2.61876e-23 -0.00562514 	0.00504162 	3.22697e-23 -0.0055634 	0.00508308 	1.86148e-23 -0.00550479 	0.00512745 	4.95346e-24 -0.0054484 	0.00517581 	3.03146e-23 -0.0053947 	0.00522777 	7.78774e-23 -0.00534943 	0.00527712 	1.20594e-22 -0.00504197 	0.00546827 	1.21452e-22 -0.00476752 	0.005699 	1.16338e-22 -0.00453311 	0.00593774 	1.05204e-22 -0.00433706 	0.00617863 	8.85349e-23 -0.00406944 	0.00661687 	5.38021e-23 -0.00405262 	0.00664504 	8.91449e-23 -0.00403619 	0.00667374 	1.24183e-22 -0.00402015 	0.00670294 	1.58919e-22 -0.00402043 	0.0067245 	8.47489e-23 -0.00402256 	0.00674491 	4.02124e-25 -0.00363559 	0.00691497 	-6.8087e-22 -0.003423 	0.00727329 	-1.12569e-21 -0.00327044 	0.00768958 	-1.50659e-21 -0.00336096 	0.00798618 	-1.19416e-21 -0.00343519 	0.00822436 	-9.47542e-22 -0.00300842 	0.00858458 	-6.22869e-22 -0.00274322 	0.00889626 	-3.65638e-22 -0.00265009 	0.00909865 	-1.9859e-22 -0.00256666 	0.00932679 	-2.66067e-23 -0.00269634 	0.00968696 	1.79328e-23 -0.0025308 	0.00993025 	1.46105e-24 -0.00248244 	0.0100375 	0 -0.00244684 	0.0101358 	0 -0.00241276 	0.0102388 	0 -0.00236292 	0.0104035 	0 -0.00232001 	0.0105547 	0 -0.00227983 	0.0107149 	0 -0.00224231 	0.0108839 	0 -0.00220733 	0.0110612 	0 -0.00227069 	0.0110086 	0 -0.00202307 	0.011104 	0 -0.00195007 	0.0114504 	0 -0.00188619 	0.011831 	0 -0.0018964 	0.0120503 	0 -0.00205909 	0.0118258 	0 -0.00173847 	0.0119765 	0 -0.00148961 	0.0122694 	0 -0.00144263 	0.0127902 	0 -0.0016346 	0.0125637 	0 -0.00182364 	0.012225 	0 -0.00148302 	0.0125063 	0 -0.00116078 	0.0129213 	0 -0.00112875 	0.0130192 	0 -0.00136145 	0.0126589 	0 -0.00157413 	0.0121984 	0 -0.00121826 	0.0126262 	0 -0.00088362 	0.0132301 	0 -0.000840857 	0.0128562 	0 -0.00109487 	0.0124063 	0 -0.00132711 	0.0118216 	0 -0.000961091 	0.0124076 	0 -0.000720418 	0.012755 	0 -0.000695606 	0.0123157 	0 -0.000836672 	0.0117796 	0 -0.00108426 	0.0110743 	0 -0.000713461 	0.0118261 	0 -0.000577486 	0.0118245 	0 -0.000555807 	0.0113806 	0 -0.000599871 	0.0108623 	0 -0.000858078 	0.0100473 	0 -0.000488007 	0.0109673 	0 -0.000447779 	0.0106166 	0 -0.000429266 	0.0101776 	0 -0.000410752 	0.00973869 	0 -0.00065797 	0.00884178 	0 -0.000349021 	0.00960366 	0 -0.000333559 	0.0091782 	0 -0.000318097 	0.00875275 	0 -0.000302635 	0.0083273 	0 -0.000481783 	0.00743636 	0 -0.000247828 	0.00792127 	0 -0.000235136 	0.00751562 	0 -0.000222445 	0.00710997 	0 -0.000209754 	0.00670431 	0 -0.00033232 	0.00587949 	2.90574e-37 -0.000164795 	0.00608916 	0 -0.000154416 	0.00570567 	0 -0.000144038 	0.00532218 	0 -0.000133659 	0.00493869 	0 -0.000210373 	0.00422555 	2.93159e-40 -9.9333e-05 	0.0041655 	0 -9.06227e-05 	0.00380024 	0 -8.19125e-05 	0.00343498 	0 -7.32023e-05 	0.00306972 	0 -0.000112255 	0.00249778 	-1.05392e-37 -5.09952e-05 	0.00232145 	0 -4.4759e-05 	0.00203756 	0 -3.85228e-05 	0.00175368 	0 -3.22867e-05 	0.00146979 	0 -3.14867e-05 	0.000738885 	0 -1.50803e-05 	0.000685582 	0 -1.3133e-05 	0.000597053 	0 -1.11857e-05 	0.000508523 	0 -9.23832e-06 	0.000419993 	0 0 	0 	0
-0.0296364 	4.0082e-05 	0 -0.0298579 	0.000177915 	0 -0.0299667 	0.000285918 	-6.94493e-25 -0.0299448 	0.000361014 	-2.15507e-24 -0.0297577 	0.000488496 	-1.77619e-23 -0.0294404 	0.000660483 	-4.53413e-23 -0.0295723 	0.00073747 	-2.24333e-22 -0.0296311 	0.000812042 	-3.34696e-22 -0.0295732 	0.000882727 	-3.40537e-22 -0.0292934 	0.00104512 	-2.30533e-22 -0.0289125 	0.00125814 	-5.8498e-23 -0.0289562 	0.0012798 	-6.83018e-23 -0.0289728 	0.00131135 	-7.69539e-23 -0.0288843 	0.00137867 	-8.1351e-23 -0.0284897 	0.00159825 	-5.54518e-23 -0.0280693 	0.0018488 	-2.40743e-23 -0.0280327 	0.00182366 	-4.87334e-23 -0.0279931 	0.00179816 	-7.33932e-23 -0.0278386 	0.00188406 	-9.65579e-23 -0.0273645 	0.00216258 	-9.24248e-23 -0.0269297 	0.0024471 	-8.79265e-23 -0.0268253 	0.00238607 	-2.76456e-22 -0.0267142 	0.00232403 	-4.65079e-22 -0.0264094 	0.0024452 	-4.4945e-22 -0.0259418 	0.00275218 	-2.29856e-22 -0.0255166 	0.00306724 	-9.69464e-24 -0.0253595 	0.00298299 	1.52824e-22 -0.0251944 	0.00289715 	3.15274e-22 -0.0246768 	0.00306358 	3.28467e-22 -0.024234 	0.00337731 	2.40798e-22 -0.0238399 	0.00371946 	1.40472e-22 -0.0236466 	0.00362554 	2.79337e-22 -0.0232583 	0.0036869 	3.15499e-22 -0.0227513 	0.00386309 	2.78975e-22 -0.0222731 	0.00404895 	2.41241e-22 -0.0219269 	0.0044136 	9.30879e-23 -0.0217183 	0.00437617 	8.51661e-23 -0.0213191 	0.00452075 	1.16032e-22 -0.0209386 	0.00467273 	1.47415e-22 -0.0205778 	0.00483243 	1.79336e-22 -0.02033 	0.00495465 	2.02998e-22 -0.0202336 	0.00500873 	2.04849e-22 -0.0201391 	0.00506364 	2.06637e-22 -0.0200467 	0.00511936 	2.0836e-22 -0.0199563 	0.00517592 	2.10017e-22 -0.0198014 	0.00528101 	2.18207e-22 -0.0192968 	0.00543149 	1.97887e-22 -0.0188749 	0.00564671 	2.02137e-22 -0.0184847 	0.00587722 	2.03996e-22 -0.0180508 	0.00618147 	2.23349e-22 -0.0174756 	0.00664574 	2.83207e-22 -0.0169859 	0.00676905 	1.60733e-22 -0.0165268 	0.00691085 	3.74041e-23 -0.0159678 	0.0071728 	0 -0.0155156 	0.00760817 	4.02908e-23 -0.0150862 	0.00811879 	8.13969e-23 -0.0149419 	0.00819006 	3.48674e-23 -0.0147889 	0.00827491 	0 -0.0146008 	0.00839372 	0 -0.0144202 	0.00851793 	0 -0.0142747 	0.0086271 	0 -0.0139471 	0.00888595 	0 -0.013643 	0.00916411 	0 -0.0133633 	0.00946189 	0 -0.0130223 	0.00979386 	0 -0.0126465 	0.0102103 	0 -0.0122949 	0.0104733 	0 -0.011977 	0.0107667 	0 -0.0116446 	0.0110709 	0 -0.0113337 	0.011401 	0 -0.0111378 	0.0116596 	0 -0.010916 	0.0119297 	0 -0.0107082 	0.0122142 	0 -0.0104976 	0.0124842 	-1.84209e-23 -0.0102872 	0.0127449 	-5.15206e-23 -0.010041 	0.0130873 	-9.28141e-23 -0.00978867 	0.0133875 	-9.91582e-23 -0.00955886 	0.0137133 	-1.06613e-22 -0.0093563 	0.0140458 	-1.37607e-22 -0.0092011 	0.0143078 	-2.85658e-22 -0.00908282 	0.0145452 	-4.11541e-22 -0.00856338 	0.0151515 	-6.36121e-22 -0.00810431 	0.0158139 	-8.25922e-22 -0.00777712 	0.0162887 	-5.29931e-22 -0.00748507 	0.0168127 	-2.3901e-22 -0.00728298 	0.0175157 	1.45496e-22 -0.00721549 	0.0176641 	2.42972e-22 -0.00715914 	0.0177836 	2.7211e-22 -0.00711253 	0.0178773 	2.40994e-22 -0.00706679 	0.0179725 	2.10214e-22 -0.00701595 	0.0180817 	1.75729e-22 -0.00677374 	0.0185763 	1.60258e-22 -0.00655617 	0.0191122 	1.46242e-22 -0.00636178 	0.0196869 	1.33598e-22 -0.0062886 	0.0201588 	1.35673e-22 -0.00640104 	0.0203831 	1.61153e-22 -0.00583362 	0.021018 	1.01188e-22 -0.00530037 	0.0217413 	4.23072e-23 -0.00520983 	0.0225004 	1.69896e-22 -0.00543275 	0.0228618 	3.55806e-22 -0.00563323 	0.0231817 	5.27496e-22 -0.0050531 	0.0240618 	2.33006e-22 -0.00458983 	0.0248964 	0 -0.00448566 	0.025208 	0 -0.00458737 	0.0255766 	2.90442e-25 -0.00485563 	0.025953 	8.17639e-25 -0.00426835 	0.027097 	2.95188e-26 -0.00414775 	0.0274787 	0 -0.00405039 	0.0278548 	0 -0.00395823 	0.0282554 	0 -0.00408811 	0.0286578 	-1.21376e-22 -0.00382901 	0.0292967 	0 -0.00376685 	0.0295513 	0 -0.00370671 	0.0298168 	0 -0.00364855 	0.0300929 	0 -0.00356189 	0.0305343 	0 -0.0035372 	0.030675 	0 -0.00351289 	0.0308179 	0 -0.00348898 	0.0309629 	0 -0.00346545 	0.03111 	0 -0.00348783 	0.0310686 	0 -0.00333939 	0.0315276 	0 -0.00324912 	0.0319965 	0 -0.00316329 	0.032493 	0 -0.00308173 	0.033016 	0 -0.0031987 	0.0326706 	0 -0.00289469 	0.0333468 	0 -0.00280776 	0.0338707 	0 -0.00272489 	0.034423 	0 -0.00265545 	0.0349548 	0 -0.00289988 	0.0339547 	0 -0.0025298 	0.0348747 	0 -0.00238792 	0.0355263 	0 -0.00230756 	0.0361241 	0 -0.00235233 	0.0360889 	0 -0.00259968 	0.0349345 	0 -0.00223569 	0.0360201 	0 -0.00199726 	0.0369468 	0 -0.00191996 	0.0375784 	0 -0.00206328 	0.0369576 	0 -0.00231004 	0.0356556 	0 -0.00195696 	0.0368996 	0 -0.00164741 	0.0381632 	7.60961e-38 -0.00157535 	0.0388164 	6.47933e-37 -0.00180058 	0.0376179 	1.22137e-36 -0.00204484 	0.0361778 	1.78797e-36 -0.00170657 	0.0375691 	1.15728e-36 -0.00137569 	0.0390954 	5.32877e-37 -0.00132704 	0.0395634 	7.82582e-40 -0.0015757 	0.0380921 	1.66339e-39 -0.00181837 	0.0365237 	2.53393e-39 -0.00149741 	0.0380499 	1.57816e-39 -0.00118313 	0.0397137 	6.31449e-40 -0.00115184 	0.039986 	-3.96641e-37 -0.00140368 	0.0384011 	-9.75978e-37 -0.0016499 	0.0367116 	-1.54903e-36 -0.00134702 	0.0383617 	-9.26209e-37 -0.00105026 	0.0401514 	-3.09008e-37 -0.00103844 	0.0402627 	0 -0.00130529 	0.0385681 	0 -0.00156632 	0.0367561 	0 -0.00128053 	0.0385268 	0 -0.00100068 	0.0404398 	0 -0.00100563 	0.0403972 	0 -0.00130824 	0.0385842 	0 -0.00160386 	0.0366301 	0 -0.00133324 	0.0385357 	0 -0.00106901 	0.04059 	0 -0.0010769 	0.0403497 	0 -0.00144788 	0.0383833 	0 -0.00180859 	0.0362315 	0 -0.00155288 	0.0383233 	0 -0.00130513 	0.040578 	0 -0.0012814 	0.0399692 	0 -0.00175778 	0.0377854 	0 -0.00222486 	0.0353123 	0 -0.0019915 	0.037719 	0 -0.00180397 	0.039555 	0 -0.0017579 	0.0385449 	0 -0.00221893 	0.036273 	0 -0.00283699 	0.0332317 	0 -0.00265386 	0.0362413 	0 -0.00251 	0.0370129 	0 -0.00239457 	0.0353108 	0 -0.00262761 	0.032836 	0 -0.00341952 	0.0287811 	0 -0.00335839 	0.0330102 	0 -0.00309252 	0.0309637 	0 -0.00279501 	0.0279849 	0 -0.0024975 	0.0250061 	0 -0.00318438 	0.0196025 	0 -0.00308606 	0.0222309 	0 -0.00242447 	0.017465 	0 -0.00176288 	0.0126991 	0 -0.00110129 	0.00793327 	0 -0.000166306 	0.000799041 	0 -0.000175347 	0.00101757 	0 -0.000138814 	0.000805558 	0 -0.00010228 	0.000593549 	0 -6.5747e-05 	0.00038154 	0 0 	0 	0
-0.0430757 	4.27503e-05 	0 -0.0430447 	0.00025492 	-2.01411e-23 -0.0429627 	0.000488181 	-4.59961e-23 -0.0429014 	0.000721952 	-7.19898e-23 -0.0428609 	0.000956227 	-9.81219e-23 -0.0427964 	0.00118098 	-1.2464e-22 -0.0426492 	0.00137679 	-1.53395e-22 -0.042464 	0.00159572 	-1.53727e-22 -0.0422988 	0.00181617 	-1.5327e-22 -0.0421535 	0.00203815 	-1.52015e-22 -0.0421027 	0.00212893 	-1.51177e-22 -0.04209 	0.0021558 	-1.51449e-22 -0.0420775 	0.0021827 	-1.51717e-22 -0.0420654 	0.00220962 	-1.5198e-22 -0.0420535 	0.00223656 	-1.52239e-22 -0.0420325 	0.00226813 	-1.53287e-22 -0.0417553 	0.00247582 	-1.255e-22 -0.0414938 	0.00268507 	-9.7689e-23 -0.0412528 	0.002897 	-6.96923e-23 -0.0410326 	0.00311163 	-4.15076e-23 -0.04072 	0.003388 	-1.86264e-23 -0.0404064 	0.00358449 	-3.47576e-24 -0.0400835 	0.00378818 	5.05168e-24 -0.0397811 	0.00399559 	1.38035e-23 -0.0394998 	0.00420678 	2.27844e-23 -0.0389762 	0.00456784 	1.6957e-23 -0.0386153 	0.00472468 	2.11346e-22 -0.0382544 	0.00492957 	2.54949e-22 -0.0379147 	0.00513938 	2.99847e-22 -0.037497 	0.00541328 	2.75032e-22 -0.0368553 	0.00584378 	7.39989e-23 -0.036436 	0.00597708 	4.75058e-23 -0.0360408 	0.00613396 	3.02927e-23 -0.0356883 	0.00635447 	4.23259e-23 -0.0350352 	0.00678672 	7.49345e-23 -0.0344075 	0.00724557 	1.07829e-22 -0.0339625 	0.00737701 	5.87302e-23 -0.0335354 	0.00751522 	9.42918e-24 -0.0328752 	0.00783144 	7.70053e-26 -0.0322617 	0.00829828 	1.67226e-23 -0.0316815 	0.00879365 	3.3213e-23 -0.0312441 	0.00894268 	5.13191e-24 -0.0305964 	0.00926614 	0 -0.0299341 	0.00964547 	0 -0.0293143 	0.0100467 	0 -0.0287523 	0.0104611 	0 -0.0287457 	0.0104671 	0 -0.028739 	0.0104732 	0 -0.0287324 	0.0104792 	0 -0.0287245 	0.0104859 	0 -0.0287143 	0.0104939 	0 -0.0280527 	0.0108912 	0 -0.0274373 	0.0113183 	0 -0.0268669 	0.0117734 	0 -0.0262441 	0.0123057 	0 -0.0254612 	0.0130013 	0 -0.0248228 	0.0133954 	0 -0.0242169 	0.0138321 	0 -0.0234723 	0.0143803 	0 -0.0227948 	0.0149767 	0 -0.022097 	0.0157201 	0 -0.0220962 	0.0157208 	0 -0.0220955 	0.0157215 	0 -0.0220945 	0.0157223 	0 -0.0220935 	0.0157231 	0 -0.0220926 	0.0157239 	0 -0.0213285 	0.0163524 	0 -0.0206326 	0.0170445 	0 -0.0199923 	0.0177959 	-2.67147e-26 -0.0192787 	0.0185646 	-3.14919e-25 -0.0184421 	0.0196633 	-6.9454e-25 -0.0183488 	0.0197878 	-6.96258e-25 -0.0182577 	0.0199142 	-6.98279e-25 -0.018163 	0.020033 	-6.88133e-24 -0.0180625 	0.0201404 	-2.16161e-23 -0.0179691 	0.0202441 	-3.55932e-23 -0.0171895 	0.0210843 	-3.16481e-23 -0.0164894 	0.0220147 	-2.42908e-23 -0.0158344 	0.0228772 	-5.209e-23 -0.0152603 	0.0237473 	-1.10125e-22 -0.0148586 	0.0246428 	-1.88689e-22 -0.0147656 	0.0248374 	-2.52682e-22 -0.0146741 	0.0250282 	-3.02001e-22 -0.0145816 	0.0251761 	-2.39833e-22 -0.0144908 	0.0253259 	-1.78079e-22 -0.0143925 	0.0254931 	-1.10459e-22 -0.0139391 	0.0262158 	2.5259e-22 -0.0135285 	0.026992 	6.03274e-22 -0.013159 	0.0278189 	9.41962e-22 -0.0129169 	0.0284132 	6.47692e-22 -0.0127484 	0.0288953 	2.281e-22 -0.0121003 	0.0299697 	-1.29397e-22 -0.0115064 	0.0311279 	-4.91724e-22 -0.0111307 	0.0318226 	-8.99907e-23 -0.0108947 	0.0325918 	6.56562e-22 -0.0108006 	0.0333399 	1.62866e-21 -0.0104554 	0.0341852 	2.27353e-21 -0.0102198 	0.0347537 	2.03727e-21 -0.010022 	0.0352546 	1.55429e-21 -0.00983379 	0.0357732 	1.08141e-21 -0.00957402 	0.0365509 	4.0925e-22 -0.00948291 	0.0368544 	3.06679e-22 -0.00939435 	0.0371629 	2.0437e-22 -0.00930831 	0.0374763 	1.02321e-22 -0.00922809 	0.0377884 	2.85972e-24 -0.00929327 	0.0378422 	3.03101e-24 -0.00878073 	0.0387696 	-8.40037e-23 -0.00850891 	0.0397579 	-2.94205e-22 -0.00825908 	0.0407932 	-5.08332e-22 -0.00816346 	0.0416005 	-7.25859e-22 -0.00840231 	0.0417542 	-9.3808e-22 -0.00772785 	0.0429178 	-6.14302e-22 -0.00713094 	0.0441631 	-1.60531e-22 -0.00695279 	0.045315 	1.24506e-21 -0.00724753 	0.0454769 	2.36769e-21 -0.00752558 	0.0456046 	3.45215e-21 -0.00684675 	0.0469965 	1.91986e-21 -0.00619485 	0.0484918 	4.08579e-22 -0.00603471 	0.0491191 	6.54375e-25 -0.00635851 	0.0492422 	3.63927e-24 -0.00666633 	0.0493261 	6.5433e-24 -0.00598816 	0.0509385 	2.7033e-24 -0.00548786 	0.0522531 	0 -0.0053801 	0.0526472 	0 -0.00551078 	0.0528579 	-2.99896e-21 -0.00583775 	0.0528776 	-8.5077e-21 -0.00516582 	0.0546954 	-1.61247e-21 -0.00492829 	0.0554372 	0 -0.00482408 	0.0558562 	0 -0.00472251 	0.0562962 	0 -0.00505666 	0.0562329 	-1.07948e-23 -0.00448944 	0.0579481 	0 -0.00438744 	0.0583622 	0 -0.0042878 	0.0587975 	0 -0.00419047 	0.0592536 	0 -0.00433624 	0.059349 	2.53971e-21 -0.00397463 	0.0605763 	3.30263e-37 -0.0038801 	0.0609989 	9.66697e-37 -0.00378755 	0.061442 	1.60202e-36 -0.00369695 	0.0619051 	2.23624e-36 -0.00369609 	0.0622134 	2.9847e-36 -0.00354299 	0.0628233 	3.24668e-36 -0.00348826 	0.0630999 	2.69744e-36 -0.00343423 	0.0633846 	2.15125e-36 -0.00338089 	0.0636774 	1.60805e-36 -0.00330974 	0.0640837 	8.78351e-37 -0.0032867 	0.0642226 	6.94537e-37 -0.00326379 	0.0643631 	5.10802e-37 -0.00324102 	0.064505 	3.27145e-37 -0.00321837 	0.0646485 	1.43565e-37 -0.00321813 	0.0646393 	4.48452e-39 -0.0031336 	0.0651348 	-5.18515e-37 -0.00307068 	0.0655629 	-1.08687e-36 -0.00300893 	0.0660062 	-1.65602e-36 -0.00294833 	0.0664646 	-2.22594e-36 -0.00297803 	0.0662637 	-2.79596e-36 -0.00285815 	0.0670715 	-2.17315e-36 -0.00282795 	0.0675063 	-1.55165e-36 -0.0027984 	0.0679503 	-9.30573e-37 -0.00276951 	0.0684035 	-3.09897e-37 -0.00288397 	0.0676767 	0 -0.00273809 	0.0688305 	0 -0.0027614 	0.0692894 	0 -0.00278463 	0.0697472 	0 -0.0028078 	0.070204 	0 -0.0030175 	0.0689157 	0 -0.00283897 	0.070469 	0 -0.00294867 	0.0709858 	0 -0.00305699 	0.0714844 	0 -0.00316395 	0.071965 	0 -0.00349363 	0.0699876 	0 -0.00324597 	0.0720546 	0 -0.0034933 	0.0726884 	0 -0.00373643 	0.0732752 	0 -0.00400292 	0.0734357 	0 -0.00446141 	0.0708104 	0 -0.00422806 	0.0732171 	0 -0.00450615 	0.0744647 	0 -0.00495758 	0.0752213 	0 -0.00546742 	0.0743475 	0 -0.0060654 	0.0710483 	0 -0.00588226 	0.0740579 	0 -0.00604504 	0.0764456 	0 -0.006805 	0.0775177 	0 -0.00756979 	0.0744633 	0 -0.00830533 	0.0699034 	0 -0.0082442 	0.0741325 	0 -0.00820365 	0.078539 	0 -0.00907812 	0.0787843 	0 -0.00990868 	0.0724278 	0 -0.010644 	0.0655227 	0 -0.0108545 	0.0722739 	0 -0.0111181 	0.0793629 	0 -0.0105721 	0.0757129 	0 -0.0110408 	0.0654312 	0 -0.0113135 	0.0543574 	0 -0.0120378 	0.066516 	0 -0.0115207 	0.0668565 	0 -0.0100131 	0.0581076 	0 -0.00850548 	0.0493587 	0 -0.00720942 	0.0312878 	0 -0.00791625 	0.0462852 	0 -0.00643037 	0.0375975 	0 -0.00494449 	0.0289098 	0 -0.00345861 	0.020222 	0 0 	0 	0