# vtk DataFile Version 2.0
track0
ASCII
DATASET POLYDATA
POINTS 41142 float
0.05 8.57988e-20 2.57396e-18
0.05 0.00217391 -1.05592e-17
0.05 0.00217391 -1.05592e-17
0.05 0.00217391 -1.05592e-17
0.05 0.00217391 -1.05592e-17
0.05 0.00217391 -1.05592e-17
0.05 0.00217391 -1.38778e-17
0.0493333 0.00217502 -6.66134e-18
0.0486667 0.00217718 -8.53484e-18
0.048 0.00218093 -1.40969e-17
0.0473334 0.00218784 -1.05824e-17
0.0466667 0.00219732 -1.80411e-17
0.046 0.00220922 -1.77636e-17
0.0453333 0.00222058 -1.68615e-17
0.0446667 0.00223256 -1.26232e-17
0.0440001 0.00224756 -1.76411e-17
0.0433333 0.00226603 -2.498e-17
0.0426667 0.00228835 -2.26208e-17
0.0419999 0.00230871 -1.79028e-17
0.0413332 0.00232935 -1.91934e-17
0.0406666 0.00235294 -1.71023e-17
0.04 0.00238051 -1.80411e-17
0.0393333 0.00241324 -1.22125e-17
0.0386665 0.00244283 -1.79021e-17
0.0379997 0.00247317 -1.72536e-17
0.0373331 0.00250652 -1.04735e-17
0.0366667 0.00254374 -1.11022e-17
0.036 0.00258731 -8.74301e-18
0.0353331 0.0026268 -2.63424e-18
0.0346663 0.00266859 1.12573e-18
0.0339997 0.00271357 -6.25615e-18
0.0333333 0.00276187 -6.93889e-18
0.0326667 0.00281732 -9.29812e-18
0.0319998 0.00286968 -2.07752e-19
0.0313331 0.00292547 -3.31638e-18
0.0306668 0.00298482 -3.98025e-18
0.03 0.00304796 1.11022e-17
0.0294499 0.00310504 3.69166e-18
0.0288998 0.00316182 1.13836e-18
0.0283499 0.00322128 1.12163e-18
0.0278004 0.0032835 -6.52164e-18
0.0273799 0.00333333 2.47565e-18
0.0272373 0.00335083 8.36431e-18
0.0270947 0.00336854 9.39579e-18
0.0269521 0.00338645 2.10068e-18
0.0268095 0.00340457 1.74452e-18
0.0266667 0.00342293 -1.16396e-18
0.026 0.00351158 3.22082e-18
0.0253338 0.00360344 7.61362e-18
0.0246682 0.00370012 2.98114e-18
0.0240034 0.00380181 5.82298e-18
0.0233333 0.00390969 1.81573e-18
0.0226667 0.00403607 9.11384e-19
0.0219994 0.00415921 4.86964e-18
0.0213331 0.00428766 5.41442e-18
0.0206681 0.00442224 8.66318e-18
0.02 0.00457405 1.50114e-17
0.0193333 0.00475313 4.89539e-18
0.0186665 0.00493157 4.67361e-18
0.0179995 0.00510933 3.56907e-18
0.017336 0.00529971 8.7284e-18
0.0166667 0.00552125 0
0.0160624 0.00575033 -2.65399e-18
0.0154591 0.00598164 -4.05741e-18
0.0148599 0.00622369 2.84423e-18
0.0142678 0.00648235 2.98345e-18
0.0138778 0.00666667 7.41991e-18
0.0137689 0.00672094 7.60126e-18
0.0136604 0.00677596 1.05575e-17
0.0135523 0.00683175 2.41094e-18
0.0134445 0.0068883 8.85749e-18
0.0133333 0.00694799 6.4704e-18
0.0126667 0.00731503 -3.8553e-18
0.0120123 0.00770363 -5.19633e-18
0.0113733 0.00811684 -6.61062e-18
0.0107514 0.00855556 -2.22044e-18
0.01 0.00914601 0
0.00980943 0.00931681 4.76038e-19
0.00962051 0.00948942 -4.39805e-19
0.00943325 0.00966384 -2.79651e-20
0.00924771 0.00984009 5.05968e-18
0.0090827 0.01 6.93889e-18
0.00859949 0.0104767 1.19074e-18
0.00813939 0.0109757 -7.77032e-18
0.00770387 0.0114963 -8.60297e-18
0.00729199 0.0120358 -7.90057e-18
0.00666667 0.0129266 -1.38778e-17
0.00661664 0.013008 -8.40998e-18
0.00656692 0.0130895 -7.105e-18
0.00651751 0.0131712 -1.13506e-17
0.0064684 0.0132531 -3.83315e-18
0.00642043 0.0133333 -1.38778e-17
0.00602284 0.014 -1.22125e-17
0.00566162 0.0146871 -1.752e-17
0.00533109 0.0153894 -1.44385e-17
0.0050273 0.0161037 -2.23097e-17
0.00479037 0.0166667 -2.65445e-17
0.00451192 0.0173333 -2.30768e-17
0.00427298 0.0180152 -1.56906e-17
0.00406009 0.0187056 -1.44746e-17
0.00385805 0.0193992 -1.06504e-17
0.00369273 0.02 -7.75439e-18
0.00362085 0.0202582 -4.26062e-18
0.00355465 0.020518 -1.99836e-19
0.00349029 0.0207782 -6.59822e-18
0.00342739 0.0210388 1.85471e-19
0.00333333 0.0214379 3.15301e-18
0.00324723 0.021817 6.79551e-18
0.00316378 0.0221967 5.26875e-18
0.00308288 0.0225769 7.90958e-18
0.00300444 0.0229576 1.61056e-17
0.00292947 0.0233333 1.11022e-17
0.00279196 0.024 1.06859e-17
0.00266995 0.0246697 1.54687e-17
0.00255567 0.0253407 1.99837e-17
0.0024485 0.0260129 1.58308e-17
0.00234562 0.0266667 1.80411e-17
0.00222954 0.0273333 2.38698e-17
0.00213233 0.028003 2.62365e-17
0.00205077 0.0286748 3.22116e-17
0.00197493 0.0293472 2.89769e-17
0.00189 0.03 4.30211e-17
0.00179055 0.0306667 3.98293e-17
0.00171118 0.031336 4.42657e-17
0.00165087 0.0320074 4.32153e-17
0.00159265 0.0326789 4.25019e-17
0.00152226 0.0333333 4.96682e-17
0.00143623 0.034 4.93135e-17
0.00137167 0.0346691 4.97851e-17
0.00132688 0.0353398 5.14758e-17
0.00128301 0.0360105 5.16979e-17
0.0012251 0.0366667 4.61851e-17
0.00115026 0.0373333 4.73506e-17
0.00109845 0.0380022 5.19161e-17
0.00106062 0.038672 5.009e-17
0.00102279 0.0393418 5.19549e-17
0.000976034 0.04 4.62529e-17
0.000910761 0.0406667 4.91372e-17
0.000870421 0.0413353 4.89995e-17
0.000837745 0.0420044 4.83568e-17
0.000805069 0.0426734 5.31508e-17
0.000768624 0.0433333 5.56189e-17
0.000711687 0.044 5.71015e-17
0.000681943 0.0446684 5.72928e-17
0.000653746 0.0453369 6.05012e-17
0.00062555 0.0460054 6.56329e-17
0.00059766 0.0466667 6.70059e-17
0.000548047 0.0473333 5.79638e-17
0.000523767 0.0480014 5.61678e-17
0.000499486 0.0486695 4.90533e-17
0.000475206 0.0493375 4.75938e-17
0.000451129 0.05 4.92088e-17
0.000407936 0.0506667 4.62276e-17
0.000387043 0.0513344 4.87622e-17
0.000366151 0.0520021 5.49525e-17
0.000345258 0.0526699 5.38405e-17
0.0003245 0.0533333 4.66441e-17
0.000286816 0.054 4.85109e-17
0.00026875 0.0546675 5.31221e-17
0.000250684 0.055335 5.80758e-17
0.000232618 0.0560025 5.17601e-17
0.000214641 0.0566667 5.9317e-17
0.000181448 0.0573333 5.84009e-17
0.000165533 0.0580006 5.7457e-17
0.000149619 0.0586679 5.39131e-17
0.000133704 0.0593352 5.8006e-17
0.00011785 0.06 4.97638e-17
9.42802e-05 0.0605244 4.96355e-17
8.27505e-05 0.0610492 5.15695e-17
7.12208e-05 0.061574 4.55238e-17
5.96911e-05 0.0620988 5.06281e-17
3.25694e-05 0.0633333 4.99058e-17
2.60555e-05 0.0634862 5.35539e-17
2.26909e-05 0.0636391 5.59826e-17
1.93263e-05 0.0637921 5.20796e-17
1.59617e-05 0.063945 5.44215e-17
0 0.0646706 5.63503e-17
0.05 0.00434783 5.94331e-18
0.0493333 0.00434873 2.47236e-18
0.0486667 0.0043527 -1.0037e-18
0.048 0.00435906 -4.99607e-18
0.0473334 0.0043671 -4.29638e-19
0.0466667 0.00437805 1.72965e-18
0.046 0.004393 3.78641e-18
0.0453334 0.00440963 6.53428e-18
0.0446668 0.0044279 6.45398e-18
0.0440003 0.00444779 8.63516e-18
0.0433333 0.00447159 6.43389e-19
0.0426667 0.0045006 7.42859e-18
0.042 0.00453006 1.35229e-17
0.0413334 0.00456023 1.3045e-17
0.0406669 0.00459205 1.00771e-17
0.04 0.00462946 1.31071e-17
0.0393333 0.00467337 1.16462e-17
0.0386666 0.00471674 9.83923e-18
0.0379999 0.00475957 1.11704e-17
0.0373333 0.00480468 1.24423e-17
0.0366667 0.00485737 2.62317e-17
0.036 0.00491795 1.78202e-17
0.0353332 0.00497726 1.05055e-17
0.0346663 0.00503527 1.12071e-17
0.0339998 0.00509699 1.28759e-17
0.0333333 0.00516769 1.11022e-17
0.0326667 0.00524783 9.29812e-18
0.0319998 0.00532627 1.13109e-17
0.0313327 0.00540298 9.36851e-18
0.0306664 0.00548571 1.06403e-17
0.03 0.00557857 0
0.0293333 0.00568259 -2.498e-18
0.0286664 0.00578484 -2.28938e-18
0.028 0.00589048 3.00948e-18
0.0273348 0.00600343 -1.09777e-18
0.0266667 0.00612489 6.93889e-18
0.0261283 0.00623324 3.67204e-18
0.0255901 0.00634171 -3.0643e-18
0.0250529 0.00645562 -7.67748e-18
0.024517 0.00657522 -6.50785e-18
0.0241275 0.00666667 4.22852e-18
0.0239687 0.00670538 -1.75196e-18
0.02381 0.00674466 -3.56935e-18
0.0236514 0.00678453 -4.69308e-18
0.023493 0.00682498 -1.13682e-17
0.0233333 0.0068664 -3.32621e-19
0.0226667 0.0070442 -1.03432e-17
0.0220025 0.00723114 -1.20423e-17
0.0213415 0.0074289 -1.92004e-17
0.020684 0.00763796 -1.06237e-17
0.02 0.00787218 -1.15603e-17
0.0193333 0.0081257 -3.98811e-18
0.0186708 0.00838974 -5.68307e-18
0.0180127 0.0086649 -7.40852e-18
0.0173621 0.00895716 -5.20222e-18
0.0166667 0.00929818 -6.93889e-18
0.0164058 0.00943854 -3.20991e-18
0.0161461 0.00958091 -4.68422e-18
0.0158876 0.00972554 -5.64154e-18
0.0156308 0.00987316 -6.60168e-18
0.0154161 0.01 -1.249e-17
0.0149996 0.0102518 -1.61153e-17
0.0145891 0.0105133 -1.45812e-17
0.014185 0.0107847 -1.46023e-17
0.0137878 0.0110659 -9.39006e-18
0.0133333 0.0114077 -7.20158e-18
0.0128563 0.0117929 -1.18966e-17
0.0123896 0.0121904 -6.42881e-18
0.0119337 0.0126003 -6.34276e-18
0.0114894 0.0130227 -7.75145e-18
0.0111806 0.0133333 -3.46963e-18
0.0109445 0.0135805 -5.96759e-18
0.0107137 0.0138327 -1.5802e-18
0.0104884 0.0140897 1.83415e-18
0.0102684 0.0143514 1.24843e-18
0.01 0.0146838 3.15905e-18
0.00969574 0.0150804 5.04443e-18
0.00940073 0.0154839 3.89789e-19
0.0091149 0.0158939 3.55565e-18
0.0088378 0.0163099 2.62934e-18
0.00860839 0.0166667 8.32667e-18
0.00822005 0.0172886 9.77841e-18
0.00785929 0.0179269 1.99961e-18
0.0075249 0.0185794 -1.12015e-18
0.007209 0.019241 1.57348e-18
0.00687109 0.02 3.28622e-18
0.00683021 0.0200983 1.0123e-17
0.00678994 0.0201969 9.31667e-18
0.00675017 0.0202957 1.04148e-17
0.0067108 0.0203947 1.20329e-17
0.00666667 0.0205069 1.23685e-17
0.00644733 0.0210722 1.65561e-17
0.00623961 0.0216418 8.85014e-18
0.00604287 0.0222154 1.2839e-17
0.00585642 0.0227924 1.17577e-17
0.00568766 0.0233333 1.38778e-17
0.0054783 0.024 1.20737e-17
0.00529142 0.0246733 1.58096e-17
0.00512592 0.0253522 1.81784e-17
0.00496829 0.026033 1.20757e-17
0.0048177 0.0266667 1.6198e-17
0.0046557 0.0273333 2.06505e-17
0.0045147 0.0280048 1.50062e-17
0.00439031 0.0286795 1.74647e-17
0.00427011 0.0293549 1.43636e-17
0.00415441 0.03 1.66738e-17
0.00402968 0.0306667 1.54937e-17
0.00392415 0.0313366 1.4426e-17
0.00382292 0.0320073 2.12903e-17
0.00372532 0.0326785 1.56623e-17
0.00363358 0.0333333 1.61533e-17
0.00357353 0.0337543 1.24441e-17
0.00351842 0.0341759 1.42788e-17
0.00346466 0.0345977 1.02135e-17
0.0034122 0.0350196 1.21321e-17
0.00333333 0.0356702 6.93889e-18
0.00331008 0.0358695 4.12462e-18
0.0032871 0.0360688 5.47412e-18
0.00326437 0.0362682 1.27294e-18
0.00324191 0.0364675 4.01108e-18
0.00321972 0.0366667 0
0.00314488 0.0373333 3.747e-18
0.00307422 0.0380005 -1.18037e-18
0.00300644 0.0386679 3.61896e-18
0.00294144 0.0393356 2.12292e-18
0.00287942 0.04 0
0.00281415 0.0406667 -1.11022e-18
0.00275622 0.041334 9.00927e-19
0.00270088 0.0420016 8.6612e-18
[...]
POINT_DATA 41142
 FIELD attributes 1
U 3 41142 float
-6.45164e-19 	-1.70264e-21 	0
-0.0152368 	2.53383e-05 	0 -0.0152368 	2.53383e-05 	0 -0.0152368 	2.53383e-05 	0 -0.0152368 	2.53383e-05 	0 -0.0152368 	2.53383e-05 	0 -0.0152368 	2.53383e-05 	0 -0.0155705 	5.04989e-05 	0 -0.0158079 	8.87831e-05 	-3.92274e-25 -0.0157681 	0.000163584 	-1.87652e-24 -0.0155147 	0.000220594 	-3.36774e-24 -0.0151906 	0.000271101 	-4.86481e-24 -0.0155153 	0.000264292 	1.90578e-22 -0.0156979 	0.000282035 	3.21249e-22 -0.0155975 	0.00035098 	3.17409e-22 -0.0153637 	0.000425832 	1.89805e-22 -0.0150684 	0.000504358 	-6.02626e-24 -0.0153704 	0.00046951 	3.46431e-23 -0.0154615 	0.000478496 	5.517e-23 -0.0153117 	0.000541823 	5.09888e-23 -0.0151073 	0.000624965 	2.74363e-23 -0.0148519 	0.000728986 	-1.62555e-23 -0.0151204 	0.000670982 	-1.19265e-23 -0.0150904 	0.000686732 	-2.897e-23 -0.014905 	0.000745591 	-5.82938e-23 -0.014721 	0.000822231 	-8.88723e-23 -0.0145136 	0.000948538 	-1.22858e-22 -0.0147407 	0.00087289 	-9.27635e-23 -0.0145701 	0.000913034 	-8.7724e-23 -0.0143639 	0.000969304 	-8.60858e-23 -0.0141742 	0.00102736 	-8.47326e-23 -0.0140198 	0.00116603 	-1.11275e-22 -0.014118 	0.00110848 	-1.9438e-22 -0.0138896 	0.00116235 	-1.56071e-22 -0.0136769 	0.00121833 	-1.17182e-22 -0.0134806 	0.00127652 	-7.76883e-23 -0.0133443 	0.0013845 	1.0857e-23 -0.0132973 	0.00137252 	-4.69275e-23 -0.013112 	0.00141786 	-3.34186e-23 -0.0129372 	0.00146495 	-1.92308e-23 -0.0127735 	0.00151386 	-4.33995e-24 -0.0126569 	0.00155273 	7.6157e-24 -0.0126201 	0.00156661 	1.19016e-23 -0.0125842 	0.00158063 	1.62404e-23 -0.0125491 	0.00159479 	2.06325e-23 -0.0125148 	0.00160909 	2.50783e-23 -0.0124441 	0.00165471 	9.23582e-24 -0.0122051 	0.00168283 	6.85079e-24 -0.0120014 	0.00174334 	7.77056e-24 -0.0118138 	0.00180715 	8.65944e-24 -0.011643 	0.00187439 	9.51609e-24 -0.0112851 	0.00213929 	5.15823e-23 -0.010934 	0.00201788 	3.81921e-22 -0.0107451 	0.00207155 	4.68838e-22 -0.0105827 	0.00214147 	5.41354e-22 -0.0103189 	0.00234479 	4.40592e-22 -0.00998502 	0.00268214 	1.81768e-22 -0.00967723 	0.00258963 	4.48484e-22 -0.00936784 	0.00249645 	7.15183e-22 -0.00905447 	0.00259794 	7.29358e-22 -0.00878706 	0.00290858 	4.94926e-22 -0.00856679 	0.00324801 	2.61675e-22 -0.00834278 	0.00319822 	4.66089e-22 -0.00806054 	0.0032565 	5.01871e-22 -0.00776228 	0.00339054 	4.3475e-22 -0.00749772 	0.00354411 	3.6426e-22 -0.00734529 	0.00366045 	3.14851e-22 -0.00729751 	0.00370025 	3.00866e-22 -0.00725121 	0.00374102 	2.86734e-22 -0.0072064 	0.00378276 	2.72456e-22 -0.00714808 	0.00383645 	2.70831e-22 -0.00708196 	0.00389907 	2.75481e-22 -0.00667717 	0.00396545 	1.82868e-22 -0.00640997 	0.00414449 	9.87667e-23 -0.00617254 	0.0043548 	1.92585e-23 -0.00590288 	0.00463846 	2.61749e-23 -0.00562473 	0.00504123 	3.22539e-23 -0.00556299 	0.00508269 	1.86057e-23 -0.00550438 	0.00512706 	4.95096e-24 -0.00544799 	0.00517542 	3.03274e-23 -0.00539429 	0.00522737 	7.79097e-23 -0.00534902 	0.00527672 	1.20643e-22 -0.00504158 	0.00546786 	1.21502e-22 -0.00476716 	0.00569857 	1.16386e-22 -0.00453276 	0.00593729 	1.05248e-22 -0.00433672 	0.00617816 	8.85727e-23 -0.00406911 	0.00661635 	5.38273e-23 -0.00405229 	0.00664453 	8.91867e-23 -0.00403587 	0.00667322 	1.24241e-22 -0.00401982 	0.00670243 	1.58993e-22 -0.0040201 	0.00672399 	8.47886e-23 -0.00402223 	0.0067444 	4.02238e-25 -0.00363528 	0.00691444 	-6.8114e-22 -0.0034227 	0.00727274 	-1.12613e-21 -0.00327016 	0.007689 	-1.50716e-21 -0.00336068 	0.00798558 	-1.19458e-21 -0.00343489 	0.00822374 	-9.47843e-22 -0.00300816 	0.00858393 	-6.23047e-22 -0.00274298 	0.00889559 	-3.65729e-22 -0.00264986 	0.00909796 	-1.98639e-22 -0.00256644 	0.00932608 	-2.6613e-23 -0.00269611 	0.00968623 	1.79656e-23 -0.00253059 	0.0099295 	1.4636e-24 -0.00248222 	0.0100368 	0 -0.00244663 	0.010135 	0 -0.00241256 	0.010238 	0 -0.00236272 	0.0104027 	0 -0.00231981 	0.0105539 	0 -0.00227964 	0.0107141 	0 -0.00224212 	0.010883 	0 -0.00220715 	0.0110604 	0 -0.0022705 	0.0110077 	0 -0.0020229 	0.0111032 	0 -0.00194991 	0.0114495 	0 -0.00188604 	0.0118301 	0 -0.00189625 	0.0120494 	0 -0.00205892 	0.0118249 	0 -0.00173833 	0.0119756 	0 -0.0014895 	0.0122684 	0 -0.00144253 	0.0127892 	0 -0.00163448 	0.0125628 	0 -0.0018235 	0.0122241 	0 -0.00148291 	0.0125054 	0 -0.00116069 	0.0129203 	0 -0.00112867 	0.0130183 	0 -0.00136136 	0.012658 	0 -0.00157402 	0.0121975 	0 -0.00121818 	0.0126253 	0 -0.000883567 	0.0132291 	0 -0.000840802 	0.0128553 	0 -0.00109481 	0.0124054 	0 -0.00132704 	0.0118207 	0 -0.000961038 	0.0124067 	0 -0.000720376 	0.0127541 	0 -0.000695567 	0.0123148 	0 -0.00083663 	0.0117788 	0 -0.0010842 	0.0110736 	0 -0.000713428 	0.0118253 	0 -0.000577458 	0.0118237 	0 -0.00055578 	0.0113798 	0 -0.000599844 	0.0108615 	0 -0.000858042 	0.0100466 	0 -0.000487989 	0.0109665 	0 -0.000447762 	0.0106158 	0 -0.000429248 	0.0101769 	0 -0.000410735 	0.00973796 	0 -0.000657946 	0.00884114 	0 -0.000349011 	0.00960294 	0 -0.000333549 	0.00917749 	0 -0.000318086 	0.00875205 	0 -0.000302624 	0.0083266 	0 -0.000481767 	0.00743575 	0 -0.000247821 	0.00792057 	0 -0.000235129 	0.00751492 	0 -0.000222437 	0.00710927 	0 -0.000209745 	0.00670362 	0 -0.000332306 	0.00587886 	2.90539e-37 -0.000164788 	0.00608843 	0 -0.000154409 	0.00570493 	0 -0.000144029 	0.00532143 	0 -0.000133649 	0.00493793 	0 -0.000210356 	0.00422486 	2.93117e-40 -9.93235e-05 	0.00416469 	0 -9.0612e-05 	0.00379941 	0 -8.19005e-05 	0.00343413 	0 -7.31889e-05 	0.00306885 	0 -0.00011223 	0.00249697 	-1.05355e-37 -5.09849e-05 	0.00232071 	0 -4.47498e-05 	0.00203691 	0 -3.85148e-05 	0.0017531 	0 -3.22798e-05 	0.0014693 	0 -3.14527e-05 	0.000738003 	0 -1.50643e-05 	0.000684766 	0 -1.3119e-05 	0.00059634 	0 -1.11737e-05 	0.000507915 	0 -9.22841e-06 	0.000419489 	0 0 	0 	0
-0.0296344 	4.01118e-05 	0 -0.0298559 	0.000177929 	0 -0.0299646 	0.000285922 	-6.95085e-25 -0.0299428 	0.000361012 	-2.15692e-24 -0.0297557 	0.000488485 	-1.77771e-23 -0.0294384 	0.000660463 	-4.53799e-23 -0.0295703 	0.000737439 	-2.24524e-22 -0.0296291 	0.000812003 	-3.34982e-22 -0.0295712 	0.000882682 	-3.40829e-22 -0.0292914 	0.00104506 	-2.30743e-22 -0.0289105 	0.00125807 	-5.85811e-23 -0.0289542 	0.00127973 	-6.85151e-23 -0.0289708 	0.00131128 	-7.72625e-23 -0.0288824 	0.00137859 	-8.1626e-23 -0.0284878 	0.00159815 	-5.556e-23 -0.0280673 	0.00184869 	-2.39924e-23 -0.0280308 	0.00182354 	-4.83398e-23 -0.0279912 	0.00179805 	-7.2688e-23 -0.0278367 	0.00188394 	-9.58175e-23 -0.0273627 	0.00216244 	-9.19419e-23 -0.0269278 	0.00244694 	-8.77022e-23 -0.0268234 	0.00238591 	-2.75998e-22 -0.0267123 	0.00232387 	-4.64388e-22 -0.0264075 	0.00244504 	-4.48791e-22 -0.02594 	0.00275199 	-2.29495e-22 -0.0255148 	0.00306703 	-9.63222e-24 -0.0253578 	0.00298278 	1.52768e-22 -0.0251927 	0.00289696 	3.15101e-22 -0.0246751 	0.00306337 	3.28288e-22 -0.0242323 	0.00337708 	2.40671e-22 -0.0238382 	0.0037192 	1.40403e-22 -0.023645 	0.00362529 	2.79208e-22 -0.0232567 	0.00368665 	3.15354e-22 -0.0227498 	0.00386283 	2.78847e-22 -0.0222715 	0.00404867 	2.41132e-22 -0.0219254 	0.00441329 	9.30468e-23 -0.0217168 	0.00437586 	8.51291e-23 -0.0213176 	0.00452044 	1.15984e-22 -0.0209372 	0.0046724 	1.47355e-22 -0.0205764 	0.00483209 	1.79266e-22 -0.0203286 	0.00495429 	2.02919e-22 -0.0202322 	0.00500837 	2.0477e-22 -0.0201377 	0.00506328 	2.06558e-22 -0.0200453 	0.005119 	2.0828e-22 -0.0199549 	0.00517556 	2.09937e-22 -0.0198 	0.00528065 	2.18125e-22 -0.0192955 	0.00543111 	1.97811e-22 -0.0188735 	0.00564632 	2.0206e-22 -0.0184834 	0.00587681 	2.03917e-22 -0.0180496 	0.00618103 	2.23264e-22 -0.0174744 	0.00664528 	2.83099e-22 -0.0169847 	0.00676857 	1.60671e-22 -0.0165257 	0.00691037 	3.73886e-23 -0.0159666 	0.0071723 	0 -0.0155145 	0.00760763 	4.02734e-23 -0.0150851 	0.00811821 	8.13632e-23 -0.0149408 	0.00818947 	3.4853e-23 -0.0147879 	0.00827432 	0 -0.0145997 	0.00839312 	0 -0.0144192 	0.00851731 	0 -0.0142737 	0.00862648 	0 -0.0139461 	0.00888531 	0 -0.013642 	0.00916345 	0 -0.0133623 	0.00946121 	0 -0.0130213 	0.00979316 	0 -0.0126456 	0.0102096 	0 -0.012294 	0.0104725 	0 -0.0119761 	0.0107659 	0 -0.0116438 	0.0110701 	0 -0.0113329 	0.0114002 	0 -0.011137 	0.0116587 	0 -0.0109152 	0.0119288 	0 -0.0107074 	0.0122133 	0 -0.0104967 	0.0124833 	-1.84482e-23 -0.0102864 	0.012744 	-5.15966e-23 -0.0100402 	0.0130863 	-9.29512e-23 -0.00978791 	0.0133865 	-9.93046e-23 -0.00955812 	0.0137123 	-1.0677e-22 -0.00935558 	0.0140448 	-1.37786e-22 -0.00920039 	0.0143067 	-2.85913e-22 -0.00908212 	0.0145442 	-4.11863e-22 -0.00856271 	0.0151504 	-6.36554e-22 -0.00810367 	0.0158127 	-8.26442e-22 -0.0077765 	0.0162875 	-5.30202e-22 -0.00748447 	0.0168115 	-2.39038e-22 -0.00728244 	0.0175144 	1.45817e-22 -0.00721494 	0.0176628 	2.43387e-22 -0.00715859 	0.0177823 	2.72542e-22 -0.00711197 	0.0178761 	2.41378e-22 -0.00706622 	0.0179712 	2.10551e-22 -0.00701538 	0.0180805 	1.76012e-22 -0.00677321 	0.018575 	1.60486e-22 -0.00655566 	0.0191109 	1.46417e-22 -0.0063613 	0.0196855 	1.33721e-22 -0.00628813 	0.0201573 	1.35769e-22 -0.00640055 	0.0203816 	1.61264e-22 -0.00583318 	0.0210165 	1.01259e-22 -0.00529998 	0.0217397 	4.23388e-23 -0.00520946 	0.0224988 	1.69814e-22 -0.00543236 	0.0228602 	3.55616e-22 -0.00563282 	0.02318 	5.27208e-22 -0.00505275 	0.02406 	2.32887e-22 -0.0045895 	0.0248946 	0 -0.00448533 	0.0252062 	0 -0.00458707 	0.0255747 	2.90383e-25 -0.00485531 	0.0259511 	8.17394e-25 -0.00426809 	0.027095 	2.95487e-26 -0.00414747 	0.0274767 	0 -0.00405012 	0.0278528 	0 -0.00395797 	0.0282534 	0 -0.00408787 	0.0286557 	-1.21357e-22 -0.00382877 	0.0292947 	0 -0.0037666 	0.0295493 	0 -0.00370647 	0.0298148 	0 -0.00364831 	0.0300909 	0 -0.00356165 	0.0305323 	0 -0.00353697 	0.030673 	0 -0.00351267 	0.0308158 	0 -0.00348877 	0.0309608 	0 -0.00346525 	0.0311079 	0 -0.00348762 	0.0310664 	0 -0.00333922 	0.0315254 	0 -0.00324895 	0.0319943 	0 -0.00316313 	0.0324908 	0 -0.00308158 	0.0330137 	0 -0.00319853 	0.0326684 	0 -0.00289456 	0.0333445 	0 -0.00280764 	0.0338683 	0 -0.00272478 	0.0344207 	0 -0.00265534 	0.0349525 	0 -0.00289976 	0.0339525 	0 -0.00252971 	0.0348724 	0 -0.00238785 	0.0355239 	0 -0.00230749 	0.0361217 	0 -0.00235226 	0.0360865 	0 -0.00259961 	0.0349322 	0 -0.00223563 	0.0360178 	0 -0.00199722 	0.0369444 	0 -0.00191993 	0.0375759 	0 -0.00206325 	0.0369552 	0 -0.00231 	0.0356533 	0 -0.00195693 	0.0368972 	0 -0.00164739 	0.0381607 	7.6089e-38 -0.00157535 	0.0388139 	6.47881e-37 -0.00180058 	0.0376155 	1.22128e-36 -0.00204484 	0.0361755 	1.78782e-36 -0.00170657 	0.0375667 	1.15719e-36 -0.0013757 	0.0390929 	5.32826e-37 -0.00132706 	0.0395609 	7.82538e-40 -0.00157573 	0.0380897 	1.66332e-39 -0.0018184 	0.0365214 	2.53382e-39 -0.00149744 	0.0380475 	1.57808e-39 -0.00118315 	0.0397112 	6.31398e-40 -0.00115187 	0.0399835 	-3.9659e-37 -0.00140373 	0.0383987 	-9.75882e-37 -0.00164995 	0.0367092 	-1.54888e-36 -0.00134706 	0.0383593 	-9.26112e-37 -0.0010503 	0.0401489 	-3.08955e-37 -0.00103849 	0.0402602 	0 -0.00130535 	0.0385656 	0 -0.00156639 	0.0367537 	0 -0.00128059 	0.0385243 	0 -0.00100072 	0.0404373 	0 -0.00100567 	0.0403946 	0 -0.0013083 	0.0385817 	0 -0.00160394 	0.0366276 	0 -0.0013333 	0.0385331 	0 -0.00106905 	0.0405874 	0 -0.00107692 	0.040347 	0 -0.00144793 	0.0383806 	0 -0.00180866 	0.0362289 	0 -0.00155291 	0.0383207 	0 -0.00130513 	0.0405753 	0 -0.00128143 	0.0399663 	0 -0.00175777 	0.0377827 	0 -0.00222487 	0.0353096 	0 -0.00199148 	0.0377163 	0 -0.00180393 	0.0395518 	0 -0.00175786 	0.0385417 	0 -0.00221882 	0.03627 	0 -0.00283689 	0.0332287 	0 -0.00265372 	0.0362384 	0 -0.00250984 	0.0370094 	0 -0.00239441 	0.0353072 	0 -0.00262731 	0.0328327 	0 -0.00341924 	0.0287778 	0 -0.00335806 	0.033007 	0 -0.00309214 	0.0309594 	0 -0.00279463 	0.0279806 	0 -0.00249711 	0.0250018 	0 -0.0031838 	0.0195986 	0 -0.00308547 	0.0222266 	0 -0.00242402 	0.0174617 	0 -0.00176256 	0.0126968 	0 -0.0011011 	0.00793191 	0 -0.000165361 	0.000794497 	0 -0.00017435 	0.00101178 	0 -0.000138024 	0.00080098 	0 -0.000101699 	0.000590178 	0 -6.53737e-05 	0.000379376 	0 0 	0 	0
-0.0430728 	4.2811e-05 	0 -0.0430417 	0.000254963 	-2.01583e-23 -0.0429598 	0.000488204 	-4.60353e-23 -0.0428985 	0.000721956 	-7.20511e-23 -0.0428579 	0.000956212 	-9.82055e-23 -0.0427935 	0.00118095 	-1.24746e-22 -0.0426462 	0.00137675 	-1.5354e-22 -0.0424611 	0.00159565 	-1.5389e-22 -0.0422958 	0.00181608 	-1.5345e-22 -0.0421506 	0.00203805 	-1.52212e-22 -0.0420998 	0.00212877 	-1.51381e-22 -0.042087 	0.00215565 	-1.51656e-22 -0.0420746 	0.00218255 	-1.51926e-22 -0.0420624 	0.00220948 	-1.52191e-22 -0.0420506 	0.00223643 	-1.52452e-22 -0.0420296 	0.00226801 	-1.53503e-22 -0.0417524 	0.00247568 	-1.2569e-22 -0.0414909 	0.00268492 	-9.78534e-23 -0.0412499 	0.00289683 	-6.98304e-23 -0.0410297 	0.00311144 	-4.16191e-23 -0.0407172 	0.00338779 	-1.87121e-23 -0.0404035 	0.00358426 	-3.69791e-24 -0.0400806 	0.00378794 	4.8239e-24 -0.0397783 	0.00399533 	1.35683e-23 -0.039497 	0.00420651 	2.254e-23 -0.0389734 	0.00456755 	1.7024e-23 -0.0386126 	0.00472437 	2.11047e-22 -0.0382516 	0.00492925 	2.54601e-22 -0.037912 	0.00513904 	2.99449e-22 -0.0374944 	0.00541292 	2.74694e-22 -0.0368526 	0.00584339 	7.40186e-23 -0.0364334 	0.00597668 	4.75055e-23 -0.0360383 	0.00613355 	3.02751e-23 -0.0356858 	0.00635403 	4.23034e-23 -0.0350327 	0.00678626 	7.48964e-23 -0.034405 	0.00724508 	1.07775e-22 -0.0339601 	0.00737651 	5.87001e-23 -0.033533 	0.00751471 	9.42334e-24 -0.0328728 	0.0078309 	7.63099e-26 -0.0322593 	0.00829771 	1.67145e-23 -0.0316792 	0.00879305 	3.31975e-23 -0.0312418 	0.00894206 	5.1289e-24 -0.0305942 	0.00926551 	0 -0.0299319 	0.0096448 	0 -0.0293122 	0.010046 	0 -0.0287503 	0.0104603 	0 -0.0287436 	0.0104664 	0 -0.028737 	0.0104724 	0 -0.0287303 	0.0104785 	0 -0.0287224 	0.0104852 	0 -0.0287122 	0.0104932 	0 -0.0280506 	0.0108904 	0 -0.0274353 	0.0113175 	0 -0.0268649 	0.0117726 	0 -0.0262422 	0.0123049 	0 -0.0254593 	0.0130004 	0 -0.0248209 	0.0133945 	0 -0.0242151 	0.0138312 	0 -0.0234705 	0.0143793 	0 -0.0227931 	0.0149757 	0 -0.0220953 	0.015719 	0 -0.0220946 	0.0157197 	0 -0.0220938 	0.0157204 	0 -0.0220929 	0.0157212 	0 -0.0220919 	0.015722 	0 -0.0220909 	0.0157227 	0 -0.0213269 	0.0163512 	0 -0.020631 	0.0170433 	0 -0.0199908 	0.0177946 	-3.24528e-26 -0.0192772 	0.0185633 	-3.82559e-25 -0.0184407 	0.0196619 	-8.43719e-25 -0.0183474 	0.0197864 	-8.45805e-25 -0.0182563 	0.0199128 	-8.48261e-25 -0.0181616 	0.0200315 	-7.03992e-24 -0.0180611 	0.0201389 	-2.17949e-23 -0.0179678 	0.0202426 	-3.57914e-23 -0.0171882 	0.0210828 	-3.20478e-23 -0.0164881 	0.0220131 	-2.4897e-23 -0.0158331 	0.0228756 	-5.2469e-23 -0.0152591 	0.0237456 	-1.10023e-22 -0.0148575 	0.024641 	-1.8806e-22 -0.0147645 	0.0248356 	-2.5196e-22 -0.014673 	0.0250264 	-3.01204e-22 -0.0145805 	0.0251743 	-2.39093e-22 -0.0144896 	0.0253241 	-1.77396e-22 -0.0143913 	0.0254914 	-1.09837e-22 -0.013938 	0.026214 	2.53393e-22 -0.0135275 	0.0269901 	6.04246e-22 -0.013158 	0.0278169 	9.43094e-22 -0.012916 	0.0284111 	6.4844e-22 -0.0127475 	0.0288932 	2.28357e-22 -0.0120995 	0.0299675 	-1.29737e-22 -0.0115056 	0.0311256 	-4.92668e-22 -0.0111299 	0.0318203 	-9.10168e-23 -0.010894 	0.0325894 	6.55671e-22 -0.0107999 	0.0333374 	1.62787e-21 -0.0104547 	0.0341827 	2.27272e-21 -0.010219 	0.0347512 	2.03656e-21 -0.0100213 	0.0352521 	1.5537e-21 -0.00983306 	0.0357708 	1.08094e-21 -0.00957329 	0.0365485 	4.0894e-22 -0.0094822 	0.0368519 	3.06447e-22 -0.00939368 	0.0371603 	2.04217e-22 -0.00930766 	0.0374737 	1.02245e-22 -0.00922746 	0.0377856 	2.85881e-24 -0.00929262 	0.0378395 	3.03001e-24 -0.00878017 	0.0387668 	-8.40019e-23 -0.00850838 	0.039755 	-2.94144e-22 -0.00825857 	0.0407902 	-5.0821e-22 -0.00816294 	0.0415975 	-7.25676e-22 -0.00840178 	0.0417511 	-9.37836e-22 -0.00772737 	0.0429147 	-6.14149e-22 -0.00713055 	0.0441599 	-1.60393e-22 -0.00695239 	0.0453118 	1.245e-21 -0.00724712 	0.0454736 	2.3675e-21 -0.00752516 	0.0456013 	3.45184e-21 -0.00684638 	0.0469931 	1.91972e-21 -0.00619452 	0.0484883 	4.08605e-22 -0.00603441 	0.0491156 	6.54452e-25 -0.00635819 	0.0492387 	3.63889e-24 -0.00666601 	0.0493226 	6.54246e-24 -0.00598788 	0.0509349 	2.70303e-24 -0.0054876 	0.0522495 	0 -0.00537986 	0.0526435 	0 -0.00551056 	0.0528542 	-2.99889e-21 -0.00583753 	0.0528739 	-8.50709e-21 -0.00516564 	0.0546916 	-1.6125e-21 -0.00492811 	0.0554334 	0 -0.00482391 	0.0558524 	0 -0.00472236 	0.0562924 	0 -0.00505652 	0.0562291 	-1.07939e-23 -0.00448932 	0.0579442 	0 -0.00438734 	0.0583583 	0 -0.00428771 	0.0587936 	0 -0.00419039 	0.0592497 	0 -0.00433617 	0.0593451 	2.53948e-21 -0.00397458 	0.0605723 	3.30239e-37 -0.00388006 	0.060995 	9.66628e-37 -0.00378753 	0.0614381 	1.6019e-36 -0.00369693 	0.0619012 	2.23608e-36 -0.00369608 	0.0622095 	2.98448e-36 -0.00354301 	0.0628193 	3.24644e-36 -0.00348829 	0.0630958 	2.69731e-36 -0.00343428 	0.0633805 	2.15122e-36 -0.00338094 	0.0636733 	1.60814e-36 -0.00330983 	0.0640795 	8.78615e-37 -0.00328678 	0.0642185 	6.94745e-37 -0.00326386 	0.064359 	5.10954e-37 -0.00324108 	0.064501 	3.2724e-37 -0.00321842 	0.0646445 	1.43603e-37 -0.00321819 	0.0646353 	4.48433e-39 -0.00313366 	0.0651308 	-5.18453e-37 -0.00307075 	0.065559 	-1.08676e-36 -0.00300901 	0.0660023 	-1.65587e-36 -0.00294842 	0.0664607 	-2.22575e-36 -0.00297815 	0.0662597 	-2.79572e-36 -0.00285825 	0.0670676 	-2.17295e-36 -0.00282805 	0.0675024 	-1.5515e-36 -0.00279852 	0.0679464 	-9.30463e-37 -0.00276963 	0.0683996 	-3.09831e-37 -0.00288412 	0.0676728 	0 -0.00273822 	0.0688267 	0 -0.00276153 	0.0692855 	0 -0.00278477 	0.0697434 	0 -0.00280794 	0.0702002 	0 -0.00301768 	0.0689117 	0 -0.00283909 	0.0704652 	0 -0.00294879 	0.0709821 	0 -0.00305711 	0.0714807 	0 -0.00316408 	0.0719614 	0 -0.0034938 	0.0699837 	0 -0.00324605 	0.0720508 	0 -0.00349338 	0.0726848 	0 -0.00373651 	0.0732716 	0 -0.00400302 	0.0734317 	0 -0.00446154 	0.0708064 	0 -0.00422815 	0.0732131 	0 -0.00450612 	0.074461 	0 -0.00495754 	0.0752177 	0 -0.00546741 	0.0743435 	0 -0.00606539 	0.0710442 	0 -0.00588222 	0.0740539 	0 -0.00604479 	0.076442 	0 -0.00680474 	0.0775142 	0 -0.00756954 	0.0744591 	0 -0.00830509 	0.0698992 	0 -0.00824391 	0.0741283 	0 -0.00820332 	0.0785349 	0 -0.00907748 	0.0787796 	0 -0.00990806 	0.0724231 	0 -0.0106434 	0.065518 	0 -0.0108538 	0.0722693 	0 -0.0111174 	0.0793584 	0 -0.010571 	0.0757075 	0 -0.0110397 	0.0654258 	0 -0.0113125 	0.0543522 	0 -0.0120367 	0.0665108 	0 -0.0115192 	0.0668483 	0 -0.0100116 	0.0580994 	0 -0.00850403 	0.0493505 	0 -0.00720795 	0.0312814 	0 -0.00791462 	0.0462759 	0 -0.00642905 	0.0375899 	0 -0.00494348 	0.028904 	0 -0.00345791 	0.020218 	0 0 	0 	0