# vtk DataFile Version 2.0
track0
ASCII
DATASET POLYDATA
POINTS 41143 float
0.05 8.57988e-20 2.57396e-18
0.05 0.00217391 -1.05592e-17
0.05 0.00217391 -1.05592e-17
0.05 0.00217391 -1.05592e-17
0.05 0.00217391 -1.05592e-17
0.05 0.00217391 -1.05592e-17
0.05 0.00217391 -1.38778e-17
0.0493333 0.00217502 -8.74301e-18
0.0486667 0.00217718 -8.1879e-18
0.048 0.00218093 -4.20896e-18
0.0473334 0.00218784 -5.03127e-18
0.0466667 0.00219732 -6.93889e-18
0.046 0.00220922 2.77556e-19
0.0453333 0.00222057 -2.08151e-19
0.0446667 0.00223255 -1.52093e-18
0.0440001 0.00224755 -2.37553e-18
0.0433333 0.00226603 0
0.0426667 0.00228834 2.35922e-18
0.0419999 0.00230871 3.26086e-18
0.0413332 0.00232934 5.43969e-18
0.0406666 0.00235293 4.40825e-18
0.04 0.00238051 -6.93889e-18
0.0393333 0.00241323 -5.27356e-18
0.0386665 0.00244282 -1.02693e-17
0.0379997 0.00247317 -9.96774e-18
0.0373331 0.00250651 -9.08563e-18
0.0366667 0.00254374 -1.249e-17
0.036 0.00258731 -1.01308e-17
0.0353331 0.0026268 -1.94035e-18
0.0346663 0.00266858 4.31795e-19
0.0339997 0.00271356 -2.09286e-18
0.0333333 0.00276186 -6.93889e-18
0.0326667 0.00281731 -9.29812e-18
0.0319998 0.00286967 -5.41192e-18
0.0313331 0.00292546 -8.8675e-18
0.0306668 0.00298482 -2.59248e-18
0.03 0.00304796 0
0.0294499 0.00310503 9.1611e-19
0.0288998 0.00316182 -2.49398e-19
0.0283499 0.00322128 -8.50606e-18
0.0278004 0.0032835 -9.29723e-18
0.0273799 0.00333333 -6.54497e-18
0.0272373 0.00335083 -4.12575e-18
0.0270946 0.00336854 -5.86981e-18
0.026952 0.00338645 -4.83824e-18
0.0268095 0.00340457 -3.80661e-18
0.0266667 0.00342293 -6.71508e-18
0.026 0.00351158 -2.3303e-18
0.0253338 0.00360344 6.74721e-19
0.0246682 0.00370012 2.98114e-18
0.0240034 0.00380181 1.27619e-17
0.0233333 0.00390969 1.15302e-17
0.0226667 0.00403607 1.82586e-17
0.0219994 0.00415921 1.11146e-17
0.0213331 0.00428766 7.49609e-18
0.0206681 0.00442224 1.0051e-17
0.02 0.00457405 1.98686e-17
0.0193333 0.00475313 1.85997e-17
0.0186665 0.00493157 1.71636e-17
0.0179995 0.00510933 1.77938e-17
0.017336 0.00529971 2.15654e-17
0.0166667 0.00552125 1.80411e-17
0.0160624 0.00575033 1.81627e-17
0.0154591 0.00598164 1.2596e-17
0.0148599 0.00622369 1.6722e-17
0.0142678 0.00648235 1.2004e-17
0.0138778 0.00666667 8.80765e-18
0.0137689 0.00672094 1.03768e-17
0.0136604 0.00677596 1.19453e-17
0.0135523 0.00683175 1.21254e-17
0.0134446 0.0068883 1.63168e-17
0.0133333 0.006948 1.34093e-17
0.0126667 0.00731504 7.24691e-18
0.0120123 0.00770364 1.07631e-17
0.0113732 0.00811685 9.34881e-18
0.0107514 0.00855557 1.16574e-17
0.01 0.00914601 1.80411e-17
0.00980943 0.00931681 1.15783e-17
0.00962051 0.00948942 1.3438e-17
0.00943325 0.00966384 1.66254e-17
0.00924771 0.00984009 2.03252e-17
0.0090827 0.01 1.80411e-17
0.00859949 0.0104767 1.09052e-17
0.00813939 0.0109757 1.25259e-17
0.00770387 0.0114963 6.66258e-18
0.00729199 0.0120358 1.11814e-17
0.00666667 0.0129266 6.93889e-18
0.00661664 0.013008 4.08002e-18
0.00656691 0.0130895 3.99721e-18
0.00651749 0.0131712 1.13935e-18
0.00646837 0.0132531 1.00447e-17
0.0064204 0.0133333 1.11022e-17
0.00602281 0.014 1.27676e-17
0.00566159 0.0146871 9.88867e-18
0.00533105 0.0153894 9.15364e-18
0.00502725 0.0161037 2.90868e-18
0.00479032 0.0166667 6.76206e-18
0.00451187 0.0173333 1.02298e-17
0.00427292 0.0180152 1.10247e-17
0.00406003 0.0187056 1.18932e-17
0.00385799 0.0193992 8.77849e-18
0.00369267 0.02 1.02873e-17
0.0036208 0.0202582 9.61765e-18
0.00355461 0.0205179 8.4737e-18
0.00349027 0.0207781 1.42183e-17
0.00342737 0.0210386 9.20577e-18
0.00333333 0.0214377 1.32171e-17
0.00324722 0.0218168 6.79549e-18
0.00316375 0.0221965 2.49315e-18
0.00308284 0.0225768 1.06851e-17
0.00300438 0.0229576 1.19422e-17
0.0029294 0.0233333 0
0.00279189 0.024 2.77556e-19
0.00266988 0.0246697 4.36649e-18
0.0025556 0.0253407 6.10611e-18
0.00244843 0.0260129 1.02795e-17
0.00234555 0.0266667 1.38778e-17
0.00222947 0.0273333 1.48492e-17
0.00213226 0.028003 1.58282e-17
0.00205071 0.0286748 1.90276e-17
0.00197486 0.0293472 1.71809e-17
0.00188993 0.03 2.498e-17
0.00179048 0.0306667 2.38698e-17
0.00171111 0.031336 2.20612e-17
0.0016508 0.0320074 2.10107e-17
0.00159258 0.0326789 1.82157e-17
0.0015222 0.0333333 1.94846e-17
0.00143617 0.034 2.12116e-17
0.00137161 0.0346691 2.37649e-17
0.00132682 0.0353398 2.47611e-17
0.00128295 0.0360105 2.39422e-17
0.00122505 0.0366667 2.57155e-17
0.0011502 0.0373333 1.57787e-17
0.0010984 0.0380022 1.77421e-17
0.00106057 0.038672 1.95588e-17
0.00102274 0.0393418 1.65665e-17
0.000975984 0.04 2.33547e-17
0.000910713 0.0406667 2.83206e-17
0.000870376 0.0413353 2.50604e-17
0.000837701 0.0420044 2.37238e-17
0.000805026 0.0426734 2.88646e-17
0.000768584 0.0433333 1.60673e-17
0.000711648 0.044 1.61621e-17
0.000681907 0.0446684 1.77411e-17
0.000653712 0.0453369 2.44189e-17
0.000625517 0.0460054 2.7469e-17
0.000597628 0.0466667 2.53725e-17
0.000548018 0.0473333 2.62184e-17
0.00052374 0.0480014 2.07795e-17
0.000499461 0.0486695 1.60936e-17
0.000475182 0.0493375 1.08177e-17
0.000451107 0.05 1.17388e-17
0.000407916 0.0506667 9.278e-18
0.000387026 0.0513344 7.82271e-18
0.000366136 0.0520021 1.05436e-17
0.000345245 0.0526699 1.77582e-17
0.000324489 0.0533333 1.33374e-17
0.000286809 0.054 2.38779e-17
0.000268745 0.0546675 1.84276e-17
0.000250681 0.055335 1.9218e-17
0.000232617 0.0560025 1.35961e-17
0.000214642 0.0566667 1.35203e-17
0.000181452 0.0573333 8.44083e-18
0.00016554 0.0580006 1.02725e-17
0.000149628 0.0586679 1.22797e-17
0.000133716 0.0593352 4.57649e-18
0.000117865 0.06 -1.96284e-19
9.42916e-05 0.0605245 -2.75294e-18
8.27609e-05 0.0610495 5.07937e-18
7.12301e-05 0.0615744 2.50333e-18
5.96993e-05 0.0620994 -1.76144e-18
3.25947e-05 0.0633333 5.49683e-18
2.60758e-05 0.0634863 2.11954e-18
2.27086e-05 0.0636394 1.85968e-18
1.93415e-05 0.0637925 -6.20645e-18
1.59743e-05 0.0639456 -1.01092e-17
0 0.0646718 -4.70982e-18
0.05 0.00434783 5.94331e-18
0.0493333 0.00434873 -4.46653e-18
0.0486667 0.0043527 -7.2487e-18
0.048 0.00435906 -4.30218e-18
0.0473334 0.0043671 -4.93992e-18
0.0466667 0.00437804 -3.12757e-18
0.046 0.004393 -7.31581e-18
0.0453334 0.00440962 -8.03738e-18
0.0446668 0.00442789 -1.05463e-17
0.0440003 0.00444778 -1.07938e-17
0.0433333 0.00447158 -5.60166e-18
0.0426667 0.00450059 -4.02064e-18
0.042 0.00453005 3.38969e-19
0.0413334 0.00456022 1.59583e-18
0.0406669 0.00459204 -1.02523e-18
0.04 0.00462945 9.64035e-19
0.0393333 0.00467336 -3.27243e-18
0.0386666 0.00471673 -3.34466e-18
0.0379999 0.00475956 -3.1411e-18
0.0373333 0.00480467 -2.12935e-18
0.0366667 0.00485736 -7.4218e-18
0.036 0.00491794 -1.18435e-17
0.0353332 0.00497725 -1.47346e-17
0.0346663 0.00503526 -1.35562e-17
0.0339998 0.00509698 -1.15838e-17
0.0333333 0.00516768 -6.93889e-18
0.0326667 0.00524782 -1.22125e-17
0.0319998 0.00532626 -1.05466e-17
0.0313327 0.00540297 -1.37033e-17
0.0306664 0.00548569 -1.43397e-17
0.03 0.00557856 -2.498e-17
0.0293333 0.00568257 -2.19269e-17
0.0286664 0.00578483 -2.38e-17
0.028 0.00589047 -2.47461e-17
0.0273348 0.00600342 -2.60941e-17
0.0266667 0.00612487 -2.91434e-17
0.0261283 0.00623323 -3.79613e-17
0.02559 0.0063417 -3.98404e-17
0.0250528 0.00645561 -4.21117e-17
0.0245169 0.00657521 -4.3978e-17
0.0241275 0.00666667 -3.80986e-17
0.0239686 0.00670537 -4.06097e-17
0.02381 0.00674466 -4.79782e-17
0.0236514 0.00678452 -3.93875e-17
0.023493 0.00682497 -3.21848e-17
0.0233333 0.00686638 -3.91904e-17
0.0226667 0.00704418 -4.36498e-17
0.0220025 0.00723112 -4.53489e-17
0.0213415 0.00742888 -4.83437e-17
0.020684 0.00763794 -4.94815e-17
0.02 0.00787216 -5.38876e-17
0.0193333 0.00812568 -5.42951e-17
0.0186708 0.00838972 -5.32145e-17
0.0180127 0.00866488 -5.22078e-17
0.0173621 0.00895714 -5.09989e-17
0.0166667 0.00929816 -4.996e-17
0.0164058 0.00943853 -4.48433e-17
0.0161461 0.0095809 -4.77053e-17
0.0158876 0.00972553 -4.86626e-17
0.0156308 0.00987316 -4.54594e-17
0.0154161 0.01 -4.44089e-17
0.0149995 0.0102517 -4.70458e-17
0.014589 0.0105133 -4.51123e-17
0.014185 0.0107847 -5.13784e-17
0.0137878 0.0110659 -4.47784e-17
0.0133333 0.0114077 -4.1896e-17
0.0128563 0.0117928 -4.93667e-17
0.0123896 0.0121904 -5.01439e-17
0.0119337 0.0126003 -5.69966e-17
0.0114893 0.0130227 -5.4936e-17
0.0111805 0.0133333 -4.37146e-17
0.0109444 0.0135805 -4.55188e-17
0.0107137 0.0138327 -4.66826e-17
0.0104883 0.0140897 -4.50034e-17
0.0102684 0.0143513 -4.45483e-17
0.01 0.0146838 -4.36777e-17
0.00969573 0.0150803 -4.63034e-17
0.00940069 0.0154838 -5.7897e-17
0.00911485 0.0158939 -4.50165e-17
0.00883774 0.0163099 -4.52489e-17
0.00860832 0.0166667 -4.996e-17
0.00821999 0.0172885 -4.95493e-17
0.00785925 0.0179268 -6.01902e-17
0.00752487 0.0185793 -5.95805e-17
0.00720897 0.0192409 -5.94891e-17
0.00687101 0.02 -6.47151e-17
0.00683014 0.0200983 -6.48172e-17
0.00678989 0.0201968 -6.64908e-17
0.00675014 0.0202956 -7.38929e-17
0.00671078 0.0203945 -7.1581e-17
0.00666667 0.0205067 -7.08988e-17
0.00644731 0.021072 -7.2956e-17
0.00623957 0.0216417 -7.16413e-17
0.00604281 0.0222153 -6.90401e-17
0.00585635 0.0227923 -6.94273e-17
0.00568758 0.0233333 -6.80012e-17
0.00547822 0.024 -7.39686e-17
0.00529134 0.0246733 -7.30082e-17
0.00512583 0.0253522 -7.02924e-17
0.00496821 0.026033 -7.46606e-17
0.00481761 0.0266667 -7.53957e-17
0.00465561 0.0273333 -8.27392e-17
0.00451461 0.0280048 -8.12709e-17
0.00439023 0.0286795 -8.07206e-17
0.00427003 0.0293549 -8.27811e-17
0.00415433 0.03 -8.11645e-17
0.0040296 0.0306667 -8.02629e-17
0.00392407 0.0313366 -8.61879e-17
0.00382284 0.0320073 -8.31401e-17
0.00372524 0.0326785 -8.49517e-17
0.0036335 0.0333333 -8.79299e-17
0.00357347 0.0337542 -8.19249e-17
0.00351838 0.0341757 -7.66209e-17
0.00346463 0.0345974 -7.86047e-17
0.00341218 0.0350193 -7.49288e-17
0.00333333 0.0356696 -6.66134e-17
0.00331007 0.035869 -7.08155e-17
0.00328707 0.0360685 -6.39149e-17
0.00326433 0.0362679 -6.53405e-17
0.00324185 0.0364674 -6.12146e-17
0.00321966 0.0366667 -6.80012e-17
0.00314482 0.0373333 -6.63358e-17
0.00307416 0.0380005 -6.6059e-17
0.00300639 0.0386679 -6.29945e-17
0.00294138 0.0393356 -6.1715e-17
0.00287937 0.04 -6.10623e-17
0.0028141 0.0406667 -5.8703e-17
[...]
POINT_DATA 41143
 FIELD attributes 1
U 3 41143 float
-6.45225e-19 	-1.70315e-21 	0
-0.0152383 	2.5324e-05 	0 -0.0152383 	2.5324e-05 	0 -0.0152383 	2.5324e-05 	0 -0.0152383 	2.5324e-05 	0 -0.0152383 	2.5324e-05 	0 -0.0152383 	2.5324e-05 	0 -0.015572 	5.04905e-05 	0 -0.0158094 	8.87815e-05 	-3.92034e-25 -0.0157697 	0.000163592 	-1.87538e-24 -0.0155163 	0.000220606 	-3.36569e-24 -0.0151921 	0.000271116 	-4.86186e-24 -0.0155168 	0.000264309 	1.90464e-22 -0.0156995 	0.000282056 	3.21059e-22 -0.0155991 	0.000351009 	3.17221e-22 -0.0153652 	0.000425869 	1.89693e-22 -0.0150699 	0.000504402 	-6.02018e-24 -0.0153719 	0.000469551 	3.45308e-23 -0.015463 	0.00047854 	5.49808e-23 -0.0153132 	0.000541874 	5.0773e-23 -0.0151088 	0.000625025 	2.72496e-23 -0.0148534 	0.000729056 	-1.63543e-23 -0.0151219 	0.000671047 	-1.19991e-23 -0.0150919 	0.000686799 	-2.90526e-23 -0.0149064 	0.000745665 	-5.84078e-23 -0.0147224 	0.000822314 	-8.90248e-23 -0.014515 	0.000948633 	-1.23069e-22 -0.0147422 	0.000872978 	-9.29227e-23 -0.0145716 	0.000913126 	-8.78557e-23 -0.0143653 	0.000969402 	-8.61936e-23 -0.0141756 	0.00102746 	-8.48169e-23 -0.0140213 	0.00116615 	-1.11384e-22 -0.0141194 	0.0011086 	-1.94506e-22 -0.013891 	0.00116247 	-1.56168e-22 -0.0136783 	0.00121846 	-1.17249e-22 -0.0134819 	0.00127665 	-7.77263e-23 -0.0133456 	0.00138465 	1.08605e-23 -0.0132987 	0.00137266 	-4.69416e-23 -0.0131133 	0.00141801 	-3.34286e-23 -0.0129385 	0.0014651 	-1.92366e-23 -0.0127748 	0.00151401 	-4.34127e-24 -0.0126582 	0.00155289 	7.61791e-24 -0.0126214 	0.00156678 	1.19049e-23 -0.0125854 	0.0015808 	1.62448e-23 -0.0125503 	0.00159496 	2.0638e-23 -0.012516 	0.00160926 	2.50849e-23 -0.0124453 	0.00165488 	9.23836e-24 -0.0122064 	0.00168301 	6.85258e-24 -0.0120026 	0.00174352 	7.77241e-24 -0.011815 	0.00180733 	8.66135e-24 -0.0116442 	0.00187458 	9.51805e-24 -0.0112863 	0.00213951 	5.15928e-23 -0.010935 	0.00201809 	3.82e-22 -0.0107461 	0.00207177 	4.68934e-22 -0.0105837 	0.00214169 	5.41466e-22 -0.0103199 	0.00234503 	4.40682e-22 -0.00998603 	0.00268242 	1.81804e-22 -0.0096782 	0.0025899 	4.48568e-22 -0.00936876 	0.0024967 	7.15315e-22 -0.00905536 	0.00259821 	7.29492e-22 -0.00878793 	0.00290888 	4.95017e-22 -0.00856766 	0.00324835 	2.61722e-22 -0.00834362 	0.00319856 	4.66169e-22 -0.00806135 	0.00325684 	5.01957e-22 -0.00776307 	0.00339089 	4.34824e-22 -0.00749849 	0.00354447 	3.64322e-22 -0.00734605 	0.00366082 	3.14904e-22 -0.00729826 	0.00370063 	3.00916e-22 -0.00725196 	0.0037414 	2.86781e-22 -0.00720714 	0.00378315 	2.725e-22 -0.00714881 	0.00383685 	2.70874e-22 -0.00708268 	0.00389947 	2.75526e-22 -0.00667785 	0.00396585 	1.82897e-22 -0.00641063 	0.00414491 	9.87816e-23 -0.00617318 	0.00435524 	1.92612e-23 -0.0059035 	0.00463893 	2.61787e-23 -0.00562533 	0.00504174 	3.22587e-23 -0.00556359 	0.0050832 	1.86084e-23 -0.00550497 	0.00512757 	4.95162e-24 -0.00544858 	0.00517593 	3.03325e-23 -0.00539488 	0.00522789 	7.79223e-23 -0.0053496 	0.00527725 	1.20663e-22 -0.00504214 	0.0054684 	1.21522e-22 -0.00476768 	0.00569913 	1.16406e-22 -0.00453326 	0.00593787 	1.05267e-22 -0.0043372 	0.00617876 	8.85901e-23 -0.00406957 	0.00661699 	5.3841e-23 -0.00405275 	0.00664517 	8.92102e-23 -0.00403632 	0.00667387 	1.24275e-22 -0.00402027 	0.00670308 	1.59036e-22 -0.00402055 	0.00672464 	8.48101e-23 -0.00402268 	0.00674505 	4.02355e-25 -0.00363567 	0.0069151 	-6.81278e-22 -0.00342307 	0.00727344 	-1.12635e-21 -0.00327051 	0.00768973 	-1.50742e-21 -0.00336104 	0.00798635 	-1.19479e-21 -0.00343527 	0.00822454 	-9.48016e-22 -0.00300849 	0.00858478 	-6.23157e-22 -0.00274329 	0.00889645 	-3.65803e-22 -0.00265015 	0.00909885 	-1.98689e-22 -0.00256672 	0.009327 	-2.66373e-23 -0.00269638 	0.00968717 	1.79802e-23 -0.00253086 	0.00993043 	1.4648e-24 -0.0024825 	0.0100377 	0 -0.0024469 	0.0101359 	0 -0.00241283 	0.0102389 	0 -0.00236299 	0.0104036 	0 -0.00232007 	0.0105548 	0 -0.00227989 	0.0107151 	0 -0.00224236 	0.010884 	0 -0.00220737 	0.0110614 	0 -0.00227074 	0.0110088 	0 -0.00202309 	0.0111042 	0 -0.00195009 	0.0114506 	0 -0.00188621 	0.0118312 	0 -0.00189644 	0.0120505 	0 -0.00205913 	0.011826 	0 -0.0017385 	0.0119767 	0 -0.0014896 	0.0122696 	0 -0.00144262 	0.0127904 	0 -0.00163462 	0.0125639 	0 -0.00182367 	0.0122251 	0 -0.00148303 	0.0125065 	0 -0.00116078 	0.0129215 	0 -0.00112874 	0.0130194 	0 -0.00136146 	0.012659 	0 -0.00157414 	0.0121985 	0 -0.00121825 	0.0126263 	0 -0.000883605 	0.0132302 	0 -0.00084086 	0.0128563 	0 -0.00109486 	0.0124063 	0 -0.00132711 	0.0118216 	0 -0.000961075 	0.0124077 	0 -0.000720413 	0.012755 	0 -0.000695601 	0.0123157 	0 -0.000836651 	0.0117796 	0 -0.00108424 	0.0110743 	0 -0.000713435 	0.0118261 	0 -0.000577475 	0.0118244 	0 -0.000555796 	0.0113805 	0 -0.000599843 	0.0108622 	0 -0.000858056 	0.0100471 	0 -0.000487976 	0.0109672 	0 -0.000447765 	0.0106164 	0 -0.000429251 	0.0101775 	0 -0.000410737 	0.00973851 	0 -0.000657943 	0.00884159 	0 -0.000349005 	0.00960341 	0 -0.000333543 	0.00917795 	0 -0.000318081 	0.00875249 	0 -0.000302619 	0.00832703 	0 -0.000481754 	0.0074361 	0 -0.00024781 	0.00792095 	0 -0.000235119 	0.0075153 	0 -0.000222428 	0.00710964 	0 -0.000209737 	0.00670399 	0 -0.000332292 	0.00587918 	2.90553e-37 -0.000164779 	0.00608879 	0 -0.0001544 	0.0057053 	0 -0.000144022 	0.00532182 	0 -0.000133644 	0.00493833 	0 -0.000210348 	0.00422522 	2.93124e-40 -9.93189e-05 	0.00416511 	0 -9.06093e-05 	0.00379986 	0 -8.18997e-05 	0.00343461 	0 -7.31902e-05 	0.00306936 	0 -0.000112235 	0.00249745 	-1.05377e-37 -5.09854e-05 	0.00232114 	0 -4.47505e-05 	0.0020373 	0 -3.85156e-05 	0.00175345 	0 -3.22807e-05 	0.0014696 	0 -3.14738e-05 	0.000738622 	0 -1.5074e-05 	0.000685336 	0 -1.31275e-05 	0.000596839 	0 -1.1181e-05 	0.000508342 	0 -9.23448e-06 	0.000419844 	0 0 	0 	0
-0.0296374 	4.00687e-05 	0 -0.0298589 	0.000177909 	0 -0.0299676 	0.000285917 	-6.94668e-25 -0.0299458 	0.000361017 	-2.15562e-24 -0.0297586 	0.000488502 	-1.77663e-23 -0.0294413 	0.000660494 	-4.53527e-23 -0.0295733 	0.000737486 	-2.2439e-22 -0.0296321 	0.000812062 	-3.3478e-22 -0.0295741 	0.000882749 	-3.40623e-22 -0.0292944 	0.00104515 	-2.30595e-22 -0.0289134 	0.00125817 	-5.85223e-23 -0.0289571 	0.00127984 	-6.83638e-23 -0.0289737 	0.00131139 	-7.70434e-23 -0.0288853 	0.00137871 	-8.14296e-23 -0.0284907 	0.0015983 	-5.54811e-23 -0.0280702 	0.00184886 	-2.40473e-23 -0.0280336 	0.00182372 	-4.86082e-23 -0.027994 	0.00179822 	-7.317e-23 -0.0278396 	0.00188412 	-9.63231e-23 -0.0273655 	0.00216265 	-9.22707e-23 -0.0269306 	0.00244718 	-8.78535e-23 -0.0268262 	0.00238615 	-2.76303e-22 -0.0267151 	0.0023241 	-4.64846e-22 -0.0264103 	0.00244528 	-4.49228e-22 -0.0259427 	0.00275227 	-2.29735e-22 -0.0255174 	0.00306734 	-9.67355e-24 -0.0253604 	0.00298309 	1.52806e-22 -0.0251953 	0.00289725 	3.15218e-22 -0.0246776 	0.00306368 	3.2841e-22 -0.0242348 	0.00337742 	2.40756e-22 -0.0238407 	0.00371958 	1.40448e-22 -0.0236475 	0.00362566 	2.79292e-22 -0.0232591 	0.00368702 	3.1545e-22 -0.0227521 	0.00386322 	2.78931e-22 -0.0222738 	0.00404909 	2.41203e-22 -0.0219277 	0.00441375 	9.30732e-23 -0.021719 	0.00437632 	8.51525e-23 -0.0213198 	0.00452091 	1.16013e-22 -0.0209393 	0.00467289 	1.47391e-22 -0.0205785 	0.0048326 	1.79307e-22 -0.0203307 	0.00495482 	2.02965e-22 -0.0202342 	0.00500891 	2.04816e-22 -0.0201398 	0.00506381 	2.06603e-22 -0.0200473 	0.00511953 	2.08326e-22 -0.019957 	0.00517609 	2.09982e-22 -0.0198021 	0.00528119 	2.18171e-22 -0.0192975 	0.00543167 	1.97855e-22 -0.0188755 	0.0056469 	2.02103e-22 -0.0184854 	0.00587741 	2.03961e-22 -0.0180515 	0.00618167 	2.2331e-22 -0.0174762 	0.00664596 	2.83157e-22 -0.0169865 	0.00676927 	1.60705e-22 -0.0165274 	0.00691107 	3.73984e-23 -0.0159683 	0.00717303 	0 -0.0155162 	0.00760841 	4.02831e-23 -0.0150868 	0.00811905 	8.13803e-23 -0.0149424 	0.00819032 	3.48602e-23 -0.0147894 	0.00827518 	0 -0.0146013 	0.008394 	0 -0.0144207 	0.0085182 	0 -0.0142752 	0.00862739 	0 -0.0139476 	0.00888624 	0 -0.0136435 	0.0091644 	0 -0.0133637 	0.00946219 	0 -0.0130228 	0.00979417 	0 -0.012647 	0.0102106 	0 -0.0122954 	0.0104736 	0 -0.0119774 	0.010767 	0 -0.011645 	0.0110713 	0 -0.0113341 	0.0114013 	0 -0.0111382 	0.0116599 	0 -0.0109164 	0.01193 	0 -0.0107086 	0.0122146 	0 -0.0104979 	0.0124845 	-1.84568e-23 -0.0102876 	0.0127452 	-5.16212e-23 -0.0100413 	0.0130876 	-9.29952e-23 -0.00978903 	0.0133879 	-9.93519e-23 -0.00955919 	0.0137137 	-1.06821e-22 -0.00935663 	0.0140462 	-1.37851e-22 -0.00920141 	0.0143082 	-2.86021e-22 -0.00908312 	0.0145457 	-4.12007e-22 -0.00856368 	0.0151519 	-6.36759e-22 -0.00810459 	0.0158143 	-8.26702e-22 -0.00777739 	0.0162891 	-5.30347e-22 -0.00748534 	0.0168132 	-2.39071e-22 -0.00728319 	0.0175162 	1.45994e-22 -0.00721571 	0.0176646 	2.43568e-22 -0.00715938 	0.0177841 	2.7272e-22 -0.00711277 	0.0178778 	2.41546e-22 -0.00706704 	0.0179729 	2.10708e-22 -0.00701621 	0.0180822 	1.76158e-22 -0.00677398 	0.0185768 	1.606e-22 -0.00655638 	0.0191128 	1.46501e-22 -0.00636198 	0.0196874 	1.33775e-22 -0.00628879 	0.0201594 	1.35809e-22 -0.00640124 	0.0203837 	1.61315e-22 -0.00583379 	0.0210187 	1.01289e-22 -0.00530053 	0.021742 	4.23476e-23 -0.00520997 	0.0225011 	1.69753e-22 -0.0054329 	0.0228625 	3.55523e-22 -0.00563338 	0.0231824 	5.27085e-22 -0.00505323 	0.0240625 	2.32816e-22 -0.00458997 	0.0248971 	0 -0.00448579 	0.0252088 	0 -0.00458747 	0.0255774 	2.9032e-25 -0.00485574 	0.0259538 	8.1737e-25 -0.00426844 	0.0270978 	2.94719e-26 -0.00414785 	0.0274795 	0 -0.00405049 	0.0278556 	0 -0.00395833 	0.0282563 	0 -0.00408818 	0.0286586 	-1.21323e-22 -0.0038291 	0.0292976 	0 -0.00376694 	0.0295522 	0 -0.00370681 	0.0298176 	0 -0.00364865 	0.0300937 	0 -0.003562 	0.030535 	0 -0.0035373 	0.0306758 	0 -0.00351299 	0.0308187 	0 -0.00348906 	0.0309638 	0 -0.00346552 	0.0311109 	0 -0.00348791 	0.0310695 	0 -0.00333946 	0.0315285 	0 -0.00324917 	0.0319975 	0 -0.00316334 	0.032494 	0 -0.00308178 	0.033017 	0 -0.00319876 	0.0326715 	0 -0.00289472 	0.0333477 	0 -0.0028078 	0.0338716 	0 -0.00272492 	0.034424 	0 -0.00265548 	0.0349557 	0 -0.00289992 	0.0339556 	0 -0.00252984 	0.0348757 	0 -0.00238794 	0.0355272 	0 -0.00230757 	0.0361251 	0 -0.00235234 	0.0360898 	0 -0.0025997 	0.0349354 	0 -0.0022357 	0.0360211 	0 -0.00199726 	0.0369478 	0 -0.00191996 	0.0375794 	0 -0.00206328 	0.0369585 	0 -0.00231004 	0.0356565 	0 -0.00195695 	0.0369005 	0 -0.0016474 	0.0381642 	7.60853e-38 -0.00157533 	0.0388174 	6.47928e-37 -0.00180057 	0.0376188 	1.22138e-36 -0.00204482 	0.0361786 	1.78797e-36 -0.00170655 	0.0375701 	1.15729e-36 -0.00137567 	0.0390964 	5.32875e-37 -0.00132702 	0.0395643 	7.82564e-40 -0.00157567 	0.038093 	1.66337e-39 -0.00181834 	0.0365246 	2.53389e-39 -0.00149739 	0.0380508 	1.57814e-39 -0.0011831 	0.0397147 	6.31439e-40 -0.00115181 	0.039987 	-3.96643e-37 -0.00140365 	0.038402 	-9.75987e-37 -0.00164986 	0.0367125 	-1.54904e-36 -0.00134698 	0.0383626 	-9.26219e-37 -0.00105023 	0.0401523 	-3.09014e-37 -0.00103841 	0.0402637 	0 -0.00130525 	0.038569 	0 -0.00156627 	0.036757 	0 -0.00128049 	0.0385277 	0 -0.00100064 	0.0404408 	0 -0.00100559 	0.0403982 	0 -0.0013082 	0.0385851 	0 -0.00160381 	0.036631 	0 -0.0013332 	0.0385366 	0 -0.00106898 	0.0405909 	0 -0.00107688 	0.0403507 	0 -0.00144785 	0.0383842 	0 -0.00180855 	0.0362324 	0 -0.00155284 	0.0383243 	0 -0.00130511 	0.0405789 	0 -0.00128138 	0.0399703 	0 -0.00175776 	0.0377865 	0 -0.00222483 	0.0353133 	0 -0.00199149 	0.03772 	0 -0.00180396 	0.0395561 	0 -0.0017579 	0.038546 	0 -0.00221895 	0.0362741 	0 -0.00283701 	0.0332328 	0 -0.00265389 	0.0362424 	0 -0.00251005 	0.0370143 	0 -0.00239462 	0.0353121 	0 -0.00262771 	0.0328373 	0 -0.00341962 	0.0287823 	0 -0.00335851 	0.0330114 	0 -0.00309266 	0.0309652 	0 -0.00279515 	0.0279864 	0 -0.00249765 	0.0250077 	0 -0.00318459 	0.0196039 	0 -0.00308628 	0.0222325 	0 -0.00242464 	0.0174662 	0 -0.001763 	0.0127 	0 -0.00110135 	0.00793376 	0 -0.00016666 	0.000800745 	0 -0.000175721 	0.00101974 	0 -0.00013911 	0.000807274 	0 -0.000102498 	0.000594813 	0 -6.58869e-05 	0.000382352 	0 0 	0 	0
-0.0430772 	4.27228e-05 	0 -0.0430461 	0.000254902 	-2.01462e-23 -0.0429641 	0.000488172 	-4.60077e-23 -0.0429028 	0.000721951 	-7.20079e-23 -0.0428623 	0.000956236 	-9.81466e-23 -0.0427979 	0.001181 	-1.24672e-22 -0.0426506 	0.00137682 	-1.53439e-22 -0.0424655 	0.00159575 	-1.53776e-22 -0.0423002 	0.00181621 	-1.53324e-22 -0.0421549 	0.0020382 	-1.52074e-22 -0.0421041 	0.00212901 	-1.51238e-22 -0.0420914 	0.00215588 	-1.51511e-22 -0.0420789 	0.00218277 	-1.51779e-22 -0.0420668 	0.00220969 	-1.52043e-22 -0.042055 	0.00223663 	-1.52302e-22 -0.0420339 	0.00226819 	-1.53351e-22 -0.0417567 	0.00247589 	-1.25556e-22 -0.0414952 	0.00268515 	-9.77376e-23 -0.0412542 	0.00289708 	-6.97332e-23 -0.041034 	0.00311172 	-4.15406e-23 -0.0407214 	0.0033881 	-1.86514e-23 -0.0404078 	0.0035846 	-3.54464e-24 -0.0400848 	0.0037883 	4.98039e-24 -0.0397825 	0.00399571 	1.37292e-23 -0.0395012 	0.00420692 	2.27066e-23 -0.0389776 	0.00456798 	1.69794e-23 -0.0386166 	0.00472483 	2.11241e-22 -0.0382557 	0.00492973 	2.54828e-22 -0.037916 	0.00513955 	2.99709e-22 -0.0374983 	0.00541345 	2.74919e-22 -0.0368566 	0.00584397 	7.40084e-23 -0.0364373 	0.00597728 	4.75072e-23 -0.0360421 	0.00613417 	3.02882e-23 -0.0356896 	0.00635468 	4.23195e-23 -0.0350365 	0.00678695 	7.49225e-23 -0.0344087 	0.00724581 	1.07812e-22 -0.0339637 	0.00737726 	5.8721e-23 -0.0335366 	0.00751547 	9.42815e-24 -0.0328763 	0.0078317 	7.72969e-26 -0.0322628 	0.00829856 	1.67203e-23 -0.0316826 	0.00879395 	3.32082e-23 -0.0312452 	0.00894298 	5.13145e-24 -0.0305975 	0.00926645 	0 -0.0299352 	0.00964579 	0 -0.0293154 	0.010047 	0 -0.0287533 	0.0104615 	0 -0.0287467 	0.0104675 	0 -0.02874 	0.0104735 	0 -0.0287334 	0.0104796 	0 -0.0287256 	0.0104863 	0 -0.0287153 	0.0104942 	0 -0.0280537 	0.0108915 	0 -0.0274383 	0.0113186 	0 -0.0268679 	0.0117738 	0 -0.0262451 	0.0123061 	0 -0.0254621 	0.0130017 	0 -0.0248237 	0.0133958 	0 -0.0242178 	0.0138326 	0 -0.0234731 	0.0143807 	0 -0.0227957 	0.0149772 	0 -0.0220978 	0.0157206 	0 -0.022097 	0.0157213 	0 -0.0220963 	0.0157221 	0 -0.0220953 	0.0157228 	0 -0.0220943 	0.0157236 	0 -0.0220934 	0.0157244 	0 -0.0213293 	0.016353 	0 -0.0206333 	0.0170451 	0 -0.019993 	0.0177964 	-3.38205e-26 -0.0192794 	0.0185652 	-3.98691e-25 -0.0184428 	0.0196639 	-8.79294e-25 -0.0183495 	0.0197884 	-8.81468e-25 -0.0182583 	0.0199148 	-8.84028e-25 -0.0181636 	0.0200336 	-7.08057e-24 -0.0180632 	0.0201411 	-2.18464e-23 -0.0179698 	0.0202448 	-3.58531e-23 -0.0171902 	0.021085 	-3.2157e-23 -0.01649 	0.0220154 	-2.50545e-23 -0.015835 	0.0228779 	-5.2549e-23 -0.0152608 	0.023748 	-1.09927e-22 -0.0148591 	0.0246436 	-1.87825e-22 -0.0147661 	0.0248383 	-2.5168e-22 -0.0146747 	0.025029 	-3.00888e-22 -0.0145821 	0.0251769 	-2.38813e-22 -0.0144913 	0.0253267 	-1.77151e-22 -0.014393 	0.0254939 	-1.09633e-22 -0.0139396 	0.0262166 	2.53756e-22 -0.013529 	0.0269929 	6.04758e-22 -0.0131594 	0.0278198 	9.43748e-22 -0.0129174 	0.0284141 	6.48841e-22 -0.0127489 	0.0288963 	2.28461e-22 -0.0121007 	0.0299707 	-1.29938e-22 -0.0115068 	0.031129 	-4.93177e-22 -0.0111311 	0.0318237 	-9.14106e-23 -0.0108951 	0.032593 	6.55223e-22 -0.0108009 	0.033341 	1.62758e-21 -0.0104558 	0.0341863 	2.27235e-21 -0.0102201 	0.0347548 	2.03624e-21 -0.0100223 	0.0352557 	1.55348e-21 -0.00983413 	0.0357743 	1.08082e-21 -0.00957437 	0.036552 	4.08993e-22 -0.00948323 	0.0368555 	3.06486e-22 -0.00939466 	0.0371641 	2.04242e-22 -0.0093086 	0.0374775 	1.02257e-22 -0.00922837 	0.0377896 	2.85886e-24 -0.00929356 	0.0378435 	3.03013e-24 -0.00878098 	0.0387709 	-8.39628e-23 -0.00850914 	0.0397593 	-2.94098e-22 -0.0082593 	0.0407946 	-5.08159e-22 -0.0081637 	0.0416019 	-7.25618e-22 -0.00840255 	0.0417556 	-9.37771e-22 -0.00772806 	0.0429193 	-6.14096e-22 -0.00713111 	0.0441646 	-1.60491e-22 -0.00695296 	0.0453166 	1.24495e-21 -0.00724771 	0.0454784 	2.36754e-21 -0.00752577 	0.0456061 	3.45196e-21 -0.00684692 	0.0469981 	1.91974e-21 -0.00619499 	0.0484935 	4.08513e-22 -0.00603484 	0.0491208 	6.54238e-25 -0.00635864 	0.0492439 	3.63909e-24 -0.00666646 	0.0493277 	6.54306e-24 -0.00598827 	0.0509402 	2.70314e-24 -0.00548797 	0.0522548 	0 -0.00538021 	0.0526489 	0 -0.00551087 	0.0528596 	-2.99874e-21 -0.00583784 	0.0528793 	-8.50742e-21 -0.00516589 	0.0546972 	-1.61229e-21 -0.00492836 	0.0554389 	0 -0.00482414 	0.055858 	0 -0.00472258 	0.056298 	0 -0.00505672 	0.0562346 	-1.07946e-23 -0.00448948 	0.0579499 	0 -0.00438748 	0.0583639 	0 -0.00428783 	0.0587993 	0 -0.00419049 	0.0592554 	0 -0.00433625 	0.0593508 	2.53964e-21 -0.00397464 	0.0605781 	3.30271e-37 -0.00388011 	0.0610007 	9.6671e-37 -0.00378756 	0.0614438 	1.60203e-36 -0.00369695 	0.0619069 	2.23626e-36 -0.00369608 	0.0622152 	2.98473e-36 -0.00354298 	0.0628252 	3.2467e-36 -0.00348824 	0.0631017 	2.69744e-36 -0.00343421 	0.0633864 	2.15123e-36 -0.00338086 	0.0636792 	1.60803e-36 -0.00330971 	0.0640855 	8.78297e-37 -0.00328667 	0.0642244 	6.94495e-37 -0.00326376 	0.0643649 	5.10772e-37 -0.00324098 	0.0645069 	3.27126e-37 -0.00321833 	0.0646503 	1.43558e-37 -0.00321809 	0.0646411 	4.48447e-39 -0.00313356 	0.0651366 	-5.18526e-37 -0.00307063 	0.0655647 	-1.08689e-36 -0.00300888 	0.066008 	-1.65604e-36 -0.00294828 	0.0664663 	-2.22597e-36 -0.00297797 	0.0662655 	-2.796e-36 -0.0028581 	0.0670733 	-2.17318e-36 -0.00282788 	0.067508 	-1.55168e-36 -0.00279834 	0.0679521 	-9.30596e-37 -0.00276944 	0.0684052 	-3.09915e-37 -0.00288388 	0.0676785 	0 -0.00273802 	0.0688323 	0 -0.00276133 	0.0692911 	0 -0.00278456 	0.0697489 	0 -0.00280772 	0.0702057 	0 -0.0030174 	0.0689174 	0 -0.0028389 	0.0704707 	0 -0.0029486 	0.0709875 	0 -0.00305691 	0.0714861 	0 -0.00316388 	0.0719667 	0 -0.00349354 	0.0699894 	0 -0.00324592 	0.0720563 	0 -0.00349325 	0.0726901 	0 -0.00373638 	0.0732769 	0 -0.00400286 	0.0734374 	0 -0.00446134 	0.0708121 	0 -0.00422801 	0.0732188 	0 -0.00450615 	0.0744663 	0 -0.00495759 	0.0752228 	0 -0.00546742 	0.0743493 	0 -0.00606538 	0.0710501 	0 -0.00588227 	0.0740597 	0 -0.00604514 	0.0764472 	0 -0.00680511 	0.0775192 	0 -0.00756989 	0.0744652 	0 -0.00830543 	0.0699053 	0 -0.00824432 	0.0741344 	0 -0.00820379 	0.0785408 	0 -0.0090784 	0.0787864 	0 -0.00990895 	0.0724299 	0 -0.0106443 	0.0655248 	0 -0.0108548 	0.072276 	0 -0.0111184 	0.0793649 	0 -0.0105726 	0.0757153 	0 -0.0110412 	0.0654335 	0 -0.011314 	0.0543598 	0 -0.0120383 	0.0665183 	0 -0.0115214 	0.0668602 	0 -0.0100137 	0.0581113 	0 -0.00850612 	0.0493623 	0 -0.00721007 	0.0312906 	0 -0.00791698 	0.0462894 	0 -0.00643096 	0.0376009 	0 -0.00494494 	0.0289124 	0 -0.00345893 	0.0202238 	0 0 	0 	0