# vtk DataFile Version 2.0
track0
ASCII
DATASET POLYDATA
POINTS 10176 float
0.05 8.57988e-20 2.57396e-18
0.05 0.00217391 -1.05592e-17
0.05 0.00217391 -1.05592e-17
0.05 0.00217391 -1.05592e-17
0.05 0.00217391 -1.05592e-17
0.05 0.00217391 -1.05592e-17
0.05 0.00217391 -1.38778e-17
0.0493333 0.002176 -1.08247e-17
0.0486667 0.00217843 -1.13104e-17
0.048 0.00218158 -1.28815e-17
0.0473334 0.00218648 -7.45762e-18
0.0466667 0.00219309 0
0.046 0.00220155 3.747e-18
0.0453333 0.00220938 8.81241e-18
0.0446667 0.00221736 1.12907e-17
0.044 0.00222714 2.34575e-18
0.0433333 0.00223927 -6.93889e-18
0.0426667 0.00225426 2.35922e-18
0.042 0.00226767 6.03662e-18
0.0413333 0.00228095 9.92507e-18
0.0406666 0.00229611 1.6299e-17
0.04 0.00231412 6.93889e-18
0.0393333 0.00233601 1.06859e-17
0.0386666 0.00235545 8.46558e-18
0.0379998 0.00237483 9.64452e-18
0.0373332 0.00239624 1.14451e-17
0.0366667 0.00242077 1.38778e-17
0.036 0.00245021 9.29812e-18
0.0353332 0.00247638 1.08954e-17
0.0346664 0.00250311 6.41237e-18
0.0339997 0.00253212 -2.82905e-18
0.0333333 0.00256416 -6.93889e-18
0.0326667 0.00260218 -1.70697e-17
0.0319998 0.00263615 -1.61673e-17
0.031333 0.00267211 -1.27591e-17
0.0306664 0.00271071 -1.62769e-17
0.03 0.00275204 -1.249e-17
0.0293333 0.00280021 -2.45637e-17
0.0286664 0.00284507 -2.62286e-17
0.0279998 0.00289302 -2.55749e-17
0.0273333 0.00294418 -2.90282e-17
0.0266667 0.00299871 -2.35922e-17
0.026 0.00305943 -2.66454e-17
0.0253333 0.00311971 -1.99841e-17
0.0246669 0.00318388 -2.37747e-17
0.024001 0.0032521 -1.88122e-17
0.0233333 0.00332477 -5.55112e-18
0.0233185 0.00332648 -1.36311e-18
0.0233037 0.00332819 -2.72621e-18
0.0232889 0.00332991 7.40147e-20
0.0232741 0.00333163 1.48646e-18
0.0232594 0.00333333 0
0.0226075 0.0034091 1.2616e-18
0.0219562 0.00348956 8.06651e-18
0.0213055 0.00357491 1.39376e-19
0.0206555 0.00366535 -9.986e-19
0.02 0.00376199 5.43135e-18
0.0193333 0.00387553 4.29683e-18
0.0186667 0.00398947 8.01554e-18
0.0180014 0.00411032 1.44363e-17
0.0173373 0.00423834 1.2425e-17
0.0166667 0.00438114 2.06585e-17
0.016 0.00455309 1.97003e-17
0.0153337 0.00472664 2.36033e-17
0.0146679 0.00490189 2.05124e-17
0.0140061 0.00509162 1.58069e-17
0.0133333 0.00532042 1.38778e-17
0.0126667 0.00558925 1.13798e-17
0.0120029 0.00586521 7.7667e-18
0.0113476 0.00616056 1.38913e-17
0.0107069 0.00648652 1.26733e-17
0.0103939 0.00666667 1.04462e-17
0.0103151 0.00671493 6.41409e-18
0.0102367 0.00676383 1.20958e-17
0.0101587 0.00681336 1.22256e-17
0.0100812 0.00686353 6.47641e-18
0.01 0.00691719 1.48484e-17
0.00933333 0.00736862 5.07601e-18
0.00869636 0.00786107 2.17425e-18
0.00809392 0.00839521 1.76178e-18
0.00752966 0.00896954 5.18551e-18
0.00666667 0.0099805 1.11022e-17
0.00666403 0.0099844 1.24966e-17
0.00666139 0.0099883 8.33984e-18
0.00665876 0.0099922 9.72762e-18
0.00665613 0.00999611 8.34422e-18
0.0066535 0.01 1.11022e-17
0.00620378 0.0106667 3.05311e-18
0.00579936 0.0113618 6.87111e-18
0.0054386 0.0120805 9.0571e-18
0.00511804 0.012818 1.27271e-17
0.00490167 0.0133333 1.30007e-17
0.00462766 0.014 1.55387e-17
0.0043963 0.0146826 1.17747e-17
0.00419577 0.015375 7.87556e-18
0.00400715 0.0160706 1.25559e-17
0.00385427 0.0166667 1.24035e-17
0.00375008 0.0170703 1.49188e-17
0.0036583 0.0174769 1.42163e-17
0.00356998 0.0178843 2.02101e-17
0.00348481 0.0182923 2.02811e-17
0.00333333 0.0190462 2.498e-17
0.00329762 0.019237 2.60109e-17
0.0032625 0.0194279 2.70478e-17
0.00322796 0.0196188 2.25394e-17
0.003194 0.0198099 2.08123e-17
0.00316079 0.02 2.498e-17
0.00304269 0.0206667 1.6237e-17
0.00293406 0.0213349 1.3376e-17
0.00283162 0.0220042 1.443e-17
0.00273498 0.0226743 1.42691e-17
0.00264539 0.0233333 6.93889e-18
0.00254588 0.024 5.82867e-18
0.00246169 0.0246688 7.4905e-18
0.00238409 0.0253383 1.13918e-17
0.00231064 0.0260084 1.47925e-17
0.00223541 0.0266667 1.38778e-17
0.00214821 0.0273333 1.13798e-17
0.00207653 0.0280018 1.09681e-17
0.00201759 0.0286716 1.48091e-17
0.00196146 0.0293416 1.30399e-17
0.00189558 0.03 1.38778e-17
0.00181677 0.0306667 1.90126e-17
0.00175412 0.031335 1.92873e-17
0.00170583 0.0320046 1.71953e-17
0.00165834 0.0326742 1.55419e-17
0.00159957 0.0333333 1.43747e-17
0.00152659 0.034 2.34307e-17
0.00147094 0.0346683 2.36397e-17
0.00143031 0.0353378 2.64499e-17
0.00139025 0.0360072 2.55031e-17
0.00133735 0.0366667 2.8304e-17
0.00126845 0.0373333 3.01535e-17
0.00121869 0.0380017 2.99443e-17
0.00118255 0.0386709 3.10097e-17
0.00114641 0.0393402 2.50965e-17
0.00109884 0.04 3.49462e-17
0.00103278 0.0406667 3.36684e-17
0.000988494 0.0413351 3.3884e-17
0.000953648 0.0420042 3.23977e-17
0.000918803 0.0426732 3.66865e-17
0.000876788 0.0433333 3.67038e-17
0.000812608 0.044 3.26473e-17
0.000774145 0.0446686 3.07718e-17
0.000740123 0.0453375 3.20507e-17
0.0007061 0.0460064 3.13447e-17
0.000670816 0.0466667 3.77407e-17
0.000607752 0.0473333 3.09762e-17
0.000574155 0.0480021 3.59623e-17
0.000540559 0.0486709 2.89281e-17
0.000506962 0.0493397 2.88551e-17
0.000473794 0.05 2.97421e-17
0.000411164 0.0506667 3.30383e-17
0.000377623 0.0513354 3.14323e-17
0.000344081 0.0520042 3.6561e-17
0.000310539 0.052673 3.78759e-17
0.000277418 0.0533333 3.83958e-17
0.000221935 0.0539218 3.63457e-17
0.000192037 0.0545121 3.63377e-17
0.00016214 0.0551024 3.00137e-17
0.000132242 0.0556927 3.21532e-17
8.29104e-05 0.0566667 3.59442e-17
6.63283e-05 0.0568399 3.46123e-17
5.73225e-05 0.0570137 3.37892e-17
4.83167e-05 0.0571876 3.54815e-17
3.93108e-05 0.0573614 3.16226e-17
0 0.0581201 3.43394e-17
0.05 0.00434783 5.94331e-18
0.0493333 0.00435035 5.24521e-18
0.0486667 0.00435446 4.54449e-18
0.048 0.00435985 1.24896e-18
0.0473334 0.00436627 8.5896e-18
0.0466667 0.00437454 1.49194e-17
0.046 0.00438549 1.21256e-17
0.0453333 0.00439729 1.62693e-17
0.0446667 0.00441 1.47801e-17
0.0440001 0.00442377 1.8805e-17
0.0433333 0.00444004 3.09644e-17
0.0426667 0.00445983 2.97085e-17
0.042 0.00447982 3.60866e-17
0.0413334 0.00450027 3.97598e-17
0.0406667 0.00452183 3.85201e-17
0.04 0.00454691 4.41226e-17
0.0393333 0.00457649 3.92161e-17
0.0386666 0.00460566 3.81267e-17
0.038 0.0046346 3.76787e-17
0.0373333 0.00466479 4.20466e-17
0.0366667 0.00470006 3.94262e-17
0.036 0.00474095 3.29461e-17
0.0353333 0.00478093 2.69955e-17
0.0346665 0.00482001 2.89334e-17
0.0339999 0.00486114 2.56041e-17
0.0333333 0.00490874 2.87749e-17
0.0326667 0.00496332 1.87094e-17
0.0319999 0.00501658 1.79026e-17
0.031333 0.00506854 1.61923e-17
0.0306664 0.00512376 1.40186e-17
0.03 0.00518695 1.80411e-17
0.0293333 0.00525878 1.41553e-17
0.0286665 0.00532905 1.58204e-17
0.0279995 0.00539777 1.67165e-17
0.0273331 0.00547201 1.44795e-17
0.0266667 0.00555577 1.38778e-17
0.026 0.00565027 2.17881e-17
0.0253331 0.00574323 2.75478e-17
0.0246667 0.00583931 3.41493e-17
0.0240013 0.00594274 2.75734e-17
0.0233333 0.00605508 3.60822e-17
0.0226844 0.0061774 3.50812e-17
0.0220357 0.00630071 3.06105e-17
0.0213887 0.00643304 3.1067e-17
0.0207438 0.00657493 3.16171e-17
0.020356 0.00666667 3.69715e-17
0.0202848 0.00668426 3.26303e-17
0.0202136 0.00670198 3.66159e-17
0.0201425 0.00671984 3.50504e-17
0.0200714 0.00673784 3.62606e-17
0.02 0.00675605 3.07544e-17
0.0193333 0.00692848 2.84096e-17
0.01867 0.0071133 2.05446e-17
0.0180106 0.00731168 2.59085e-17
0.0173557 0.00752437 2.1965e-17
0.0166667 0.00776779 2.49551e-17
0.016 0.00803482 1.66015e-17
0.0153403 0.00831862 1.78526e-17
0.0146884 0.00861994 1.82577e-17
0.0140481 0.00894513 1.70223e-17
0.0133333 0.00935161 1.80411e-17
0.0131329 0.00948129 1.63196e-17
0.0129339 0.00961318 1.73185e-17
0.0127365 0.00974731 1.20962e-17
0.012541 0.00988429 1.03401e-17
0.0123809 0.01 1.11022e-17
0.0119047 0.0103531 1.46775e-17
0.0114443 0.0107266 1.88734e-17
0.0110008 0.01112 2.00129e-17
0.0105753 0.0115328 3.0384e-17
0.01 0.0121442 2.08167e-17
0.00980325 0.012382 1.46874e-17
0.00961122 0.0126237 1.97075e-17
0.00942392 0.012869 1.13073e-17
0.00924109 0.0131177 1.66036e-17
0.0090875 0.0133333 2.498e-17
0.00862533 0.014 1.90126e-17
0.00820401 0.0146932 2.15525e-17
0.00782235 0.015409 2.21854e-17
0.00746966 0.0161396 1.67658e-17
0.00723563 0.0166667 1.11357e-17
0.00712184 0.0169375 -2.50755e-19
0.00701296 0.0172104 -1.46142e-19
0.006908 0.0174847 -5.60402e-18
0.0068061 0.0177603 -2.38352e-18
0.00666667 0.0181501 -1.67197e-18
0.00654042 0.0185201 4.47871e-18
0.00641896 0.0188917 6.18772e-19
0.0063021 0.0192647 2.29846e-18
0.00618965 0.0196391 2.97174e-18
0.00608453 0.02 4.16334e-18
0.00588957 0.0206667 1.06859e-17
0.00571537 0.0213391 1.02839e-17
0.00555457 0.0220148 1.41074e-17
0.00540435 0.0226929 1.63269e-17
0.0052623 0.0233333 1.38778e-17
0.00511102 0.024 1.41553e-17
0.00497751 0.0246705 1.64089e-17
0.00486022 0.0253439 1.64729e-17
0.00474775 0.0260182 1.51534e-17
0.00463458 0.0266667 1.43528e-17
0.00451338 0.0273333 1.71725e-17
0.00440768 0.0280026 1.67421e-17
0.00431221 0.0286735 1.26175e-17
0.00421918 0.0293446 1.5129e-17
0.00412739 0.03 1.60249e-17
0.00402808 0.0306667 1.27208e-17
0.00394255 0.0313352 1.30052e-17
0.00385946 0.0320041 9.15248e-18
0.00377834 0.0326732 1.28954e-17
0.00370022 0.0333333 1.74301e-17
0.00362684 0.0339265 2.37443e-17
0.00355967 0.0345204 2.65799e-17
0.00349383 0.0351144 2.73048e-17
0.00342927 0.0357086 1.96366e-17
0.00333333 0.0366091 1.80411e-17
0.00333214 0.0366206 2.08147e-17
0.00333095 0.0366321 1.94249e-17
0.00332976 0.0366437 1.24841e-17
0.00332857 0.0366552 1.66454e-17
0.00332739 0.0366667 1.11022e-17
0.00325848 0.0373333 3.747e-18
0.00319107 0.0380002 8.88153e-18
0.00312503 0.0386671 1.07553e-17
0.00306031 0.0393342 7.87199e-18
0.00299698 0.04 1.80411e-17
0.00293092 0.0406667 1.6237e-17
0.0028702 0.0413338 2.27587e-17
0.0028106 0.0420011 1.99462e-17
0.00275205 0.0426685 2.4012e-17
0.00269473 0.0433333 2.91434e-17
0.00263055 0.044 3.08087e-17
0.00257544 0.0446675 3.10849e-17
0.00252163 0.0453351 3.19549e-17
0.00246861 0.0460027 3.61345e-17
0.00241422 0.0466667 3.60822e-17
0.00235116 0.0473333 3.42781e-17
0.00229794 0.0480009 3.35134e-17
0.0022497 0.0486688 3.56654e-17
0.00220195 0.0493367 3.72725e-17
0.00214903 0.05 3.19189e-17
[...]
POINT_DATA 10176
 FIELD attributes 1
U 3 10176 float
-3.40488e-19 	-1.79466e-22 	0
-0.00722255 	2.25866e-05 	0 -0.00722255 	2.25866e-05 	0 -0.00722255 	2.25866e-05 	0 -0.00722255 	2.25866e-05 	0 -0.00722255 	2.25866e-05 	0 -0.00722255 	2.25866e-05 	0 -0.00764786 	2.79573e-05 	0 -0.00795597 	3.74851e-05 	-2.9054e-24 -0.00794039 	5.84582e-05 	-1.38117e-23 -0.00762817 	7.5638e-05 	-2.47466e-23 -0.00720756 	9.14327e-05 	-3.57097e-23 -0.00762861 	8.955e-05 	1.33234e-21 -0.00790715 	9.47008e-05 	2.26784e-21 -0.00787414 	0.000115546 	2.24216e-21 -0.00758656 	0.000137999 	1.31071e-21 -0.00717828 	0.000161351 	-6.69045e-23 -0.00758879 	0.000152715 	1.08532e-21 -0.00781546 	0.000155662 	1.87931e-21 -0.00776627 	0.000176613 	2.12145e-21 -0.00752036 	0.000203181 	1.7202e-21 -0.00713055 	0.000234129 	8.34406e-22 -0.00752453 	0.000219339 	6.01918e-22 -0.00767788 	0.000223178 	6.07134e-22 -0.00761431 	0.000244567 	8.3422e-22 -0.00742315 	0.00027317 	1.16095e-21 -0.00705768 	0.000311722 	1.62475e-21 -0.00742945 	0.000291497 	1.19706e-21 -0.00748964 	0.000300313 	9.07059e-22 -0.00741392 	0.000322624 	6.81199e-22 -0.00728559 	0.000350223 	5.48054e-22 -0.00694996 	0.000396387 	7.53216e-22 -0.00729422 	0.000371603 	8.38775e-22 -0.00724367 	0.000390594 	6.61695e-22 -0.0071584 	0.000414527 	4.57917e-22 -0.00707876 	0.00043905 	2.53874e-22 -0.00679462 	0.000490915 	-1.52725e-23 -0.00703107 	0.000472914 	1.39727e-22 -0.00693329 	0.000498679 	1.28768e-22 -0.00684147 	0.00052523 	1.16903e-22 -0.00675583 	0.000552595 	1.04096e-22 -0.00657974 	0.000599314 	-6.87715e-24 -0.00665159 	0.000601335 	-6.10103e-24 -0.00654992 	0.000630769 	-5.84586e-24 -0.0064549 	0.000661295 	-5.60597e-24 -0.0063668 	0.000692958 	-5.38201e-24 -0.00628382 	0.000726453 	-5.19356e-24 -0.00628533 	0.000726457 	-3.86739e-24 -0.00628291 	0.000727195 	-4.21172e-24 -0.0062805 	0.000727934 	-4.55653e-24 -0.00627809 	0.000728673 	-4.9018e-24 -0.00627569 	0.000729407 	-5.24499e-24 -0.00617146 	0.000762362 	-2.08748e-23 -0.00607422 	0.000796758 	-3.74512e-23 -0.0059843 	0.000832657 	-5.50153e-23 -0.00590199 	0.000870119 	-7.36066e-23 -0.00567154 	0.000965942 	-2.06596e-23 -0.00561422 	0.000959646 	-4.10474e-23 -0.00551834 	0.00100224 	-4.72948e-23 -0.00543102 	0.00104708 	-5.39938e-23 -0.00527978 	0.00112421 	-4.70692e-23 -0.00496363 	0.00128024 	-6.27142e-24 -0.00489829 	0.00127596 	1.34293e-23 -0.00483448 	0.00127247 	3.31092e-23 -0.0047014 	0.00134784 	3.68106e-23 -0.00442587 	0.00150514 	3.07508e-23 -0.004169 	0.00168113 	2.49979e-23 -0.00409698 	0.00170335 	6.71005e-23 -0.00393407 	0.00177298 	7.64575e-23 -0.0037098 	0.00188744 	5.95062e-23 -0.00350782 	0.00201908 	4.10585e-23 -0.00341885 	0.00209448 	3.09926e-23 -0.00339585 	0.00211822 	2.97304e-23 -0.00337332 	0.00214236 	2.84562e-23 -0.00335129 	0.0021669 	2.71699e-23 -0.00331511 	0.00219172 	2.72691e-23 -0.00327601 	0.00221836 	2.75145e-23 -0.00304209 	0.00235186 	1.75353e-23 -0.00284482 	0.00252233 	7.45508e-24 -0.00265858 	0.00270598 	-7.34229e-25 -0.00245126 	0.00287155 	-3.50891e-24 -0.00215604 	0.00318872 	-8.07566e-24 -0.00215547 	0.00318976 	-8.07874e-24 -0.00215489 	0.0031908 	-8.08182e-24 -0.00215432 	0.00319182 	-8.08005e-24 -0.00215399 	0.00319219 	-7.79407e-24 -0.00215366 	0.00319256 	-7.5086e-24 -0.00196308 	0.00337403 	-1.43951e-23 -0.00180354 	0.00359312 	-1.96003e-23 -0.00167161 	0.00384586 	-2.40031e-23 -0.00165037 	0.00393084 	-1.00413e-23 -0.00164072 	0.00399186 	1.02601e-26 -0.0014444 	0.00426166 	1.30002e-23 -0.00130096 	0.00449158 	8.05537e-24 -0.00124245 	0.00458236 	-3.53472e-23 -0.00120124 	0.00468343 	-6.90586e-23 -0.0012309 	0.0047684 	-5.34275e-23 -0.00112671 	0.00499147 	-1.09361e-22 -0.00109607 	0.00505575 	-9.72251e-23 -0.00106864 	0.00512003 	-8.31128e-23 -0.0010425 	0.00518853 	-6.88314e-23 -0.000996551 	0.00532243 	-4.21853e-23 -0.000986017 	0.00535855 	-3.21685e-23 -0.000975725 	0.00539548 	-2.21732e-23 -0.000965668 	0.0054332 	-1.2199e-23 -0.000955843 	0.0054717 	-2.2457e-24 -0.000962784 	0.00543456 	0 -0.000904194 	0.00556264 	0 -0.000871194 	0.00569154 	0 -0.000840868 	0.00583098 	0 -0.000813052 	0.00598028 	0 -0.000859693 	0.00575973 	0 -0.000753015 	0.00598132 	0 -0.000713894 	0.00616023 	0 -0.000694191 	0.00633264 	0 -0.000717043 	0.00627406 	0 -0.000779953 	0.00596349 	0 -0.000670057 	0.0062485 	0 -0.000576968 	0.00655692 	0 -0.000567101 	0.00676869 	0 -0.000643686 	0.00643341 	0 -0.000716381 	0.00606003 	0 -0.000601148 	0.00641284 	0 -0.000491801 	0.00681886 	0 -0.0004876 	0.00687585 	0 -0.000577322 	0.00647479 	0 -0.000660664 	0.00603466 	0 -0.000537919 	0.00646094 	0 -0.000422105 	0.0069544 	0 -0.000410446 	0.00685874 	0 -0.000513431 	0.00640056 	0 -0.000608763 	0.00589004 	0 -0.00047624 	0.00639683 	0 -0.000369828 	0.00684859 	0 -0.000358861 	0.0066455 	0 -0.000446285 	0.00619076 	0 -0.000555648 	0.00560682 	0 -0.000410897 	0.00620277 	0 -0.000334755 	0.00642725 	0 -0.000322955 	0.00620069 	0 -0.00036998 	0.00581324 	0 -0.000496332 	0.0051556 	0 -0.000336583 	0.00585121 	0 -0.000294912 	0.00579803 	0 -0.000281951 	0.00554322 	0 -0.00028081 	0.00525461 	0 -0.000428493 	0.00452973 	0 -0.000262662 	0.00522871 	0 -0.000248141 	0.00493967 	0 -0.000233621 	0.00465062 	0 -0.000219101 	0.00436158 	0 -0.000344466 	0.00366671 	0 -0.00020354 	0.00405825 	0 -0.000186936 	0.00372719 	0 -0.000170332 	0.00339613 	0 -0.000153728 	0.00306507 	0 -0.00023186 	0.00245904 	2.32231e-37 -0.0001273 	0.0025134 	0 -0.000110151 	0.00217481 	0 -9.30017e-05 	0.00183622 	0 -7.58528e-05 	0.00149764 	0 -8.06168e-05 	0.000842331 	1.11769e-40 -4.47278e-05 	0.000863272 	0 -3.86548e-05 	0.000746059 	0 -3.25818e-05 	0.000628847 	0 -2.65088e-05 	0.000511635 	0 0 	0 	0
-0.0133065 	5.04478e-05 	0 -0.0136244 	8.39249e-05 	0 -0.0137883 	0.00011154 	-5.08347e-24 -0.013779 	0.000132592 	-1.58506e-23 -0.0135804 	0.000168562 	-1.25766e-22 -0.0132249 	0.000217146 	-3.19263e-22 -0.0135148 	0.00023916 	-1.57484e-21 -0.0136773 	0.000260854 	-2.32808e-21 -0.0136572 	0.000282069 	-2.3641e-21 -0.013416 	0.000327303 	-1.70194e-21 -0.0130442 	0.000387388 	-6.16302e-22 -0.0133028 	0.000398852 	-1.47971e-21 -0.0134779 	0.000413306 	-2.03086e-21 -0.0134478 	0.000435113 	-1.81429e-21 -0.0131463 	0.000494427 	-7.90103e-22 -0.0127644 	0.000566339 	4.90673e-22 -0.012989 	0.000568425 	2.37884e-21 -0.0131877 	0.00057244 	4.11183e-21 -0.0131485 	0.00059535 	4.37568e-21 -0.0127697 	0.000675532 	2.89225e-21 -0.0123843 	0.000759692 	1.32114e-21 -0.0125732 	0.000753941 	2.42971e-21 -0.0127603 	0.000747966 	3.539e-21 -0.0126799 	0.000782272 	3.31027e-21 -0.012286 	0.000877458 	1.87214e-21 -0.011904 	0.000974515 	4.32048e-22 -0.0120563 	0.000962972 	-3.46357e-23 -0.0122062 	0.00095104 	-5.00933e-22 -0.012078 	0.0010005 	-6.13441e-22 -0.011693 	0.00110882 	-3.95552e-22 -0.0113215 	0.0012198 	-1.78421e-22 -0.0114372 	0.00120522 	-3.21848e-22 -0.0115502 	0.00119012 	-4.65176e-22 -0.0113362 	0.00126284 	-4.18356e-22 -0.0109856 	0.00138063 	-2.59091e-22 -0.0106319 	0.00150712 	-8.67836e-23 -0.0107118 	0.00149327 	-6.33515e-23 -0.0106227 	0.00153141 	-5.13315e-23 -0.010395 	0.00161595 	-4.93007e-23 -0.0101641 	0.00170935 	-4.99579e-23 -0.00983536 	0.00185391 	-7.08712e-23 -0.00982238 	0.00186711 	-1.62382e-22 -0.00958881 	0.00196127 	-1.4989e-22 -0.00936463 	0.00206027 	-1.3607e-22 -0.0091505 	0.0021644 	-1.20839e-22 -0.00902773 	0.00223051 	-1.10746e-22 -0.00900651 	0.00224332 	-1.10294e-22 -0.00898544 	0.00225619 	-1.09835e-22 -0.00896452 	0.00226914 	-1.09366e-22 -0.00894375 	0.00228217 	-1.0889e-22 -0.00890019 	0.00230193 	-1.10699e-22 -0.00866826 	0.00241516 	-8.42041e-23 -0.00844074 	0.00253934 	-5.77893e-23 -0.00822626 	0.00267146 	-3.09535e-23 -0.00798868 	0.00282241 	-9.44013e-24 -0.0075886 	0.00303959 	-1.17944e-23 -0.00738483 	0.0031769 	-6.86098e-24 -0.0071945 	0.00332557 	-1.87579e-24 -0.00691159 	0.0035101 	3.01684e-25 -0.00657313 	0.00373811 	4.10789e-24 -0.00621434 	0.00402076 	7.83141e-24 -0.00615772 	0.00408172 	3.84434e-24 -0.00610129 	0.00414427 	0 -0.00600633 	0.00420807 	0 -0.00591361 	0.00427393 	0 -0.00583879 	0.00433015 	0 -0.00560366 	0.00454525 	0 -0.00538487 	0.00477771 	0 -0.00517445 	0.00502041 	0 -0.00492903 	0.00523775 	0 -0.00460749 	0.00556918 	0 -0.00451864 	0.00568646 	0 -0.00443377 	0.00580767 	0 -0.00435152 	0.00591871 	-1.15272e-28 -0.0042691 	0.00599328 	-5.60245e-28 -0.00420109 	0.00605982 	-9.40953e-28 -0.00391165 	0.00643599 	-7.30089e-28 -0.00365209 	0.00684981 	-4.49716e-28 -0.00344126 	0.00712782 	1.25332e-22 -0.00327892 	0.00738518 	3.46079e-22 -0.00318381 	0.00757776 	5.27513e-22 -0.00310163 	0.00777301 	6.93979e-22 -0.00303157 	0.00792493 	6.1375e-22 -0.00297222 	0.00803627 	3.05826e-22 -0.00291515 	0.00815073 	1.46565e-24 -0.00283782 	0.00831629 	-4.22571e-22 -0.00276924 	0.00847196 	-6.01002e-22 -0.0027042 	0.00863262 	-7.81905e-22 -0.00264255 	0.008798 	-9.65142e-22 -0.00260022 	0.00892666 	-1.13476e-21 -0.00261081 	0.00892765 	-1.25106e-21 -0.00240909 	0.00929875 	-8.59251e-22 -0.00229408 	0.00964047 	-5.26247e-22 -0.00221112 	0.00998153 	-2.14868e-22 -0.00223187 	0.0100624 	-1.9174e-22 -0.00228126 	0.0100529 	-2.58534e-22 -0.00209315 	0.0105114 	-1.48906e-22 -0.00191554 	0.0109995 	-4.1154e-23 -0.00187082 	0.0112154 	2.97852e-22 -0.00195494 	0.0112018 	1.11751e-21 -0.0020325 	0.01118 	1.89843e-21 -0.00185307 	0.0117333 	7.48991e-22 -0.00172982 	0.0121545 	0 -0.00170236 	0.0122824 	0 -0.00172975 	0.0123503 	1.95184e-25 -0.00183481 	0.0123172 	6.72428e-25 -0.00165991 	0.0129754 	2.3781e-26 -0.00163233 	0.0131399 	0 -0.00161139 	0.0132912 	0 -0.0015915 	0.0134481 	0 -0.00166704 	0.0134759 	-3.68202e-22 -0.00157391 	0.0139162 	0 -0.00155957 	0.0140702 	0 -0.001546 	0.0142287 	0 -0.0015332 	0.0143915 	0 -0.00151491 	0.0146445 	0 -0.00151469 	0.0146478 	0 -0.00151446 	0.0146511 	0 -0.00151424 	0.0146544 	0 -0.00151402 	0.0146576 	0 -0.00151463 	0.0146547 	0 -0.00150177 	0.0148554 	0 -0.00149111 	0.0150589 	0 -0.00148135 	0.0152679 	0 -0.00147247 	0.0154821 	0 -0.00151547 	0.015292 	0 -0.00143082 	0.0157236 	0 -0.00142662 	0.0159704 	0 -0.00142324 	0.0162222 	0 -0.00142063 	0.0164789 	0 -0.00152543 	0.0158453 	0 -0.00136568 	0.0165409 	0 -0.00135948 	0.0168664 	0 -0.00136367 	0.0171721 	0 -0.00140568 	0.0171588 	0 -0.00154212 	0.0163022 	0 -0.00136411 	0.0171102 	0 -0.00128033 	0.017728 	0 -0.00129425 	0.0181029 	0 -0.00140532 	0.0176143 	0 -0.00156243 	0.0166314 	0 -0.00136222 	0.0175675 	0 -0.00118182 	0.0185538 	2.97696e-38 -0.00121146 	0.0189967 	5.53538e-37 -0.00140354 	0.0179466 	1.07726e-36 -0.001586 	0.0168206 	1.58854e-36 -0.00135867 	0.0179041 	9.77839e-37 -0.00114126 	0.0190981 	3.76478e-37 -0.00116537 	0.0192705 	5.57601e-40 -0.00139259 	0.0180809 	1.40416e-39 -0.00160702 	0.0167911 	2.22802e-39 -0.00134632 	0.0180466 	1.24329e-39 -0.00109885 	0.0194475 	2.75802e-40 -0.00109351 	0.0193096 	-1.43058e-37 -0.00136685 	0.0179678 	-6.7024e-37 -0.00162251 	0.0164901 	-1.18106e-36 -0.00132044 	0.0179501 	-5.69058e-37 -0.00104913 	0.0194855 	0 -0.00102003 	0.018945 	0 -0.00131532 	0.0175256 	0 -0.00162577 	0.0158316 	0 -0.00127223 	0.0175412 	0 -0.00105253 	0.0184404 	0 -0.00101461 	0.0177759 	0 -0.00120603 	0.0165293 	0 -0.00159218 	0.0145898 	0 -0.00117507 	0.0166155 	0 -0.00102918 	0.0165819 	0 -0.00097673 	0.0157369 	0 -0.000989874 	0.0147379 	0 -0.0014855 	0.0125426 	0 -0.00102004 	0.0146543 	0 -0.00094195 	0.0135325 	0 -0.000863863 	0.0124106 	0 -0.000785775 	0.0112888 	0 -0.00119904 	0.00911981 	0 -0.000791706 	0.00980727 	0 -0.000669531 	0.00829382 	0 -0.000547356 	0.00678038 	0 -0.000425182 	0.00526694 	0 -0.000467412 	0.00313599 	0 -0.000334447 	0.0034666 	0 -0.000279981 	0.00290205 	0 -0.000225515 	0.0023375 	0 -0.000171049 	0.00177295 	0 0 	0 	0
-0.0180893 	8.43371e-05 	0 -0.0181332 	0.000139152 	-1.42119e-22 -0.0181046 	0.000199967 	-3.24022e-22 -0.0180797 	0.000260908 	-5.06528e-22 -0.0180586 	0.000321972 	-6.89637e-22 -0.017987 	0.000381147 	-8.75162e-22 -0.0179809 	0.000435775 	-1.18433e-21 -0.0179212 	0.00049676 	-1.31238e-21 -0.0178653 	0.000558045 	-1.43717e-21 -0.0178133 	0.000619632 	-1.55867e-21 -0.0177579 	0.000681556 	-1.64887e-21 -0.0177549 	0.000687752 	-1.64769e-21 -0.017744 	0.000695032 	-1.62311e-21 -0.0177331 	0.000702319 	-1.5985e-21 -0.0177223 	0.000709612 	-1.57384e-21 -0.0177127 	0.000716179 	-1.55164e-21 -0.017634 	0.000771215 	-1.37441e-21 -0.0175586 	0.000826648 	-1.19581e-21 -0.0174865 	0.000882484 	-1.0158e-21 -0.0174178 	0.000938728 	-8.34388e-22 -0.0173014 	0.0010039 	-6.70409e-22 -0.017225 	0.00106985 	-1.09187e-21 -0.0171117 	0.00113515 	-1.05545e-21 -0.017003 	0.00120121 	-1.02681e-21 -0.0168989 	0.00126805 	-1.00613e-21 -0.0166697 	0.00135985 	2.33489e-22 -0.016626 	0.00142918 	-9.95767e-22 -0.0164899 	0.00149934 	-1.16495e-21 -0.0163589 	0.00157062 	-1.34174e-21 -0.0162331 	0.00164304 	-1.52629e-21 -0.0158808 	0.00176451 	4.41028e-23 -0.0158627 	0.00183568 	-8.30706e-23 -0.015725 	0.00191289 	-1.10963e-22 -0.0155759 	0.00199232 	-1.24686e-22 -0.0153292 	0.00209702 	-1.54514e-22 -0.0149412 	0.00223853 	-2.07552e-22 -0.0148841 	0.00231621 	-1.37164e-22 -0.0148198 	0.00239675 	-6.8611e-23 -0.0146427 	0.00249234 	-2.3273e-23 -0.0142463 	0.00264738 	-4.41738e-23 -0.0138564 	0.00280951 	-6.48669e-23 -0.0137654 	0.00290067 	-3.44751e-23 -0.0136797 	0.00299457 	-3.93039e-24 -0.0133976 	0.00314649 	0 -0.0130176 	0.00332512 	-1.18332e-23 -0.0126347 	0.00351656 	-2.47308e-23 -0.0125167 	0.00363127 	-2.83917e-24 -0.0122148 	0.00380543 	0 -0.0118951 	0.00399614 	0 -0.011587 	0.00419619 	0 -0.0113887 	0.00433704 	0 -0.0113675 	0.00435424 	0 -0.0113463 	0.00437151 	0 -0.0113253 	0.00438884 	0 -0.0113 	0.00440733 	0 -0.0112677 	0.00442783 	0 -0.0109409 	0.00465097 	0 -0.010624 	0.00488708 	0 -0.010323 	0.005137 	0 -0.00996303 	0.00541394 	0 -0.00950824 	0.005759 	0 -0.00924889 	0.00600912 	0 -0.00899173 	0.00627182 	0 -0.0086608 	0.00654149 	0 -0.00834695 	0.0068266 	0 -0.00818211 	0.00699397 	0 -0.00807924 	0.00712289 	0 -0.00797901 	0.00725424 	0 -0.00787489 	0.00738426 	1.33962e-23 -0.00775864 	0.00750827 	5.71031e-23 -0.007629 	0.00765268 	1.07062e-22 -0.00732053 	0.00801053 	1.07267e-22 -0.00703486 	0.00838895 	1.13213e-22 -0.00675501 	0.0087375 	2.55888e-22 -0.00647954 	0.00905327 	5.37385e-22 -0.00631127 	0.00927263 	7.25608e-22 -0.00615294 	0.0095596 	9.85503e-22 -0.00600312 	0.00985444 	1.24811e-21 -0.00585494 	0.0100799 	4.8795e-22 -0.00571365 	0.0103094 	-2.96899e-22 -0.00552322 	0.0106435 	-1.39835e-21 -0.00543153 	0.0108158 	-1.47676e-21 -0.00534325 	0.0109913 	-1.56368e-21 -0.00525829 	0.0111697 	-1.65887e-21 -0.00518869 	0.0112817 	-2.12348e-21 -0.00513057 	0.0113598 	-2.71477e-21 -0.00488887 	0.0118577 	-4.81076e-21 -0.00467539 	0.0123674 	-6.59853e-21 -0.00452744 	0.0127871 	-6.31388e-21 -0.00443238 	0.0130013 	-3.31079e-21 -0.00435452 	0.0131994 	-6.26618e-22 -0.00416926 	0.0137932 	2.09289e-21 -0.00402214 	0.0142641 	3.86314e-21 -0.00391373 	0.0145805 	4.49912e-21 -0.00381249 	0.0149088 	5.15856e-21 -0.00377444 	0.0151495 	5.45211e-21 -0.00370537 	0.0154886 	6.52266e-21 -0.003664 	0.0156607 	5.5331e-21 -0.0036241 	0.0158355 	4.5537e-21 -0.00358564 	0.0160128 	3.58418e-21 -0.00353755 	0.0162459 	2.33895e-21 -0.00350194 	0.0164197 	1.76987e-21 -0.00346759 	0.0165958 	1.20236e-21 -0.00343446 	0.016774 	6.36378e-22 -0.00340252 	0.0169544 	7.18948e-23 -0.0034312 	0.0169275 	2.53906e-24 -0.00328078 	0.0174399 	-1.95378e-22 -0.00322569 	0.0178495 	-7.40738e-22 -0.00317539 	0.0182682 	-1.29179e-21 -0.00316269 	0.018569 	-1.84797e-21 -0.00326603 	0.0184354 	-2.39637e-21 -0.00306422 	0.0191246 	-1.60878e-21 -0.00291761 	0.0197711 	-4.44732e-22 -0.00289303 	0.0202607 	1.66559e-21 -0.00301665 	0.0201653 	3.07193e-21 -0.00314594 	0.0200105 	4.38436e-21 -0.00293983 	0.0208198 	2.57518e-21 -0.00274255 	0.0216615 	7.86859e-22 -0.00272823 	0.0219937 	6.93157e-25 -0.00289454 	0.0218351 	2.27706e-24 -0.00305283 	0.0216605 	3.82093e-24 -0.00283969 	0.0226079 	1.76729e-24 -0.00265977 	0.0234831 	0 -0.00264546 	0.0236704 	0 -0.00278407 	0.0235965 	-4.12976e-21 -0.00297575 	0.0234047 	-9.77562e-21 -0.00275338 	0.0245125 	-2.49432e-21 -0.0026719 	0.0250437 	0 -0.0026627 	0.0252674 	0 -0.00267243 	0.0254626 	-4.84582e-25 -0.00290387 	0.0252575 	-6.85597e-24 -0.00270215 	0.0264006 	0 -0.00269848 	0.0266654 	0 -0.00269553 	0.0269346 	0 -0.00269326 	0.0272082 	0 -0.00282674 	0.0272354 	2.14801e-21 -0.00272943 	0.0279728 	2.76205e-37 -0.00273328 	0.0282454 	7.94879e-37 -0.00273762 	0.028521 	1.31321e-36 -0.00274241 	0.0287995 	1.83122e-36 -0.00274927 	0.0291674 	2.50816e-36 -0.00274981 	0.0292005 	2.55928e-36 -0.00275036 	0.0292336 	2.61041e-36 -0.00275092 	0.0292667 	2.66155e-36 -0.00275149 	0.0292999 	2.71269e-36 -0.00275942 	0.0292655 	2.76383e-36 -0.00276021 	0.0296823 	2.1539e-36 -0.00277471 	0.0300687 	1.54467e-36 -0.00278981 	0.0304589 	9.35801e-37 -0.00280547 	0.0308525 	3.27274e-37 -0.00291075 	0.0304131 	4.03553e-39 -0.0027747 	0.0313145 	-2.16828e-37 -0.0028065 	0.0318006 	-7.25945e-37 -0.00283865 	0.0322887 	-1.23527e-36 -0.00287113 	0.0327789 	-1.74481e-36 -0.0030941 	0.0314463 	-2.25226e-36 -0.00279203 	0.0329064 	-1.64026e-36 -0.00282883 	0.0335826 	-1.03506e-36 -0.00288781 	0.0342048 	-4.30175e-37 -0.00301771 	0.0341275 	0 -0.00331748 	0.0323054 	0 -0.00296395 	0.0340149 	0 -0.00281973 	0.0353705 	0 -0.00292268 	0.0361834 	0 -0.0032195 	0.0350036 	0 -0.00358589 	0.032859 	0 -0.00316877 	0.0348847 	0 -0.0027717 	0.0371047 	0 -0.00295979 	0.0378664 	0 -0.00344671 	0.0355052 	0 -0.00390142 	0.0329412 	0 -0.00340799 	0.0353896 	0 -0.00294535 	0.0381135 	0 -0.00302658 	0.0380717 	0 -0.00365043 	0.0352379 	0 -0.00422055 	0.0321011 	0 -0.00364248 	0.0351567 	0 -0.00311652 	0.038606 	0 -0.00299003 	0.0370391 	0 -0.00371917 	0.0336797 	0 -0.00443119 	0.0297301 	0 -0.00377838 	0.0337332 	0 -0.00336349 	0.0348631 	0 -0.00314085 	0.0325554 	0 -0.00329329 	0.0294208 	0 -0.00416893 	0.0243199 	0 -0.00350295 	0.0298404 	0 -0.00308493 	0.0262794 	0 -0.00266691 	0.0227185 	0 -0.00224889 	0.0191575 	0 -0.00265733 	0.0134646 	0 -0.00233457 	0.0164346 	0 -0.00191063 	0.0134502 	0 -0.00148669 	0.0104658 	0 -0.00106276 	0.00748146 	0 0 	0 	0