# vtk DataFile Version 2.0
track0
ASCII
DATASET POLYDATA
POINTS 41183 float
0.05 8.57988e-20 2.57396e-18
0.05 0.00217391 -1.05592e-17
0.05 0.00217391 -1.05592e-17
0.05 0.00217391 -1.05592e-17
0.05 0.00217391 -1.05592e-17
0.05 0.00217391 -1.05592e-17
0.05 0.00217391 -1.38778e-17
0.0493333 0.00217504 -3.19189e-18
0.0486667 0.00217721 -6.10623e-18
0.048 0.00218096 -1.04539e-17
0.0473334 0.00218788 -5.72522e-18
0.0466667 0.00219737 -5.55112e-18
0.046 0.00220927 -1.80411e-18
0.0453333 0.00222064 -3.33065e-18
0.0446667 0.00223262 -7.59235e-18
0.0440001 0.00224762 -1.07017e-17
0.0433333 0.00226611 -1.38778e-17
0.0426667 0.00228842 -6.66134e-18
0.0419999 0.00230879 -6.45359e-18
0.0413332 0.00232943 -6.70394e-18
0.0406666 0.00235302 -7.38801e-18
0.04 0.0023806 -1.38778e-17
0.0393333 0.00241332 -1.42941e-17
0.0386665 0.00244291 -2.10246e-17
0.0379997 0.00247325 -1.76004e-17
0.0373331 0.0025066 -1.81071e-17
0.0366667 0.00254382 -1.80411e-17
0.036 0.00258739 -1.42941e-17
0.0353331 0.00262688 -1.44304e-17
0.0346663 0.00266866 -9.28188e-18
0.0339997 0.00271364 -1.04188e-17
0.0333333 0.00276194 -1.38778e-17
0.0326667 0.00281738 -2.04003e-17
0.0319998 0.00286974 -1.51264e-17
0.0313331 0.00292552 -1.92757e-17
0.0306668 0.00298487 -1.92457e-17
0.03 0.003048 -1.94289e-17
0.0294499 0.00310507 -1.29617e-17
0.0288998 0.00316184 -2.66173e-17
0.02835 0.00322129 -2.24924e-17
0.0278005 0.00328351 -2.45626e-17
0.0273801 0.00333333 -2.73613e-17
0.0272374 0.00335083 -2.07788e-17
0.0270947 0.00336854 -1.69718e-17
0.0269521 0.00338645 -1.31648e-17
0.0268095 0.00340457 -1.90721e-17
0.0266667 0.00342294 -1.78173e-17
0.026 0.00351158 -1.75959e-17
0.0253338 0.00360343 -1.87542e-17
0.0246682 0.00370009 -1.67947e-17
0.0240034 0.00380178 -1.42998e-17
0.0233333 0.00390964 -2.03887e-17
0.0226667 0.00403601 -2.47624e-17
0.0219994 0.00415914 -2.7743e-17
0.0213331 0.00428757 -2.16473e-17
0.0206681 0.00442214 -2.49902e-17
0.02 0.00457393 -1.55185e-17
0.0193333 0.00475298 -1.41852e-17
0.0186665 0.00493141 -1.86568e-17
0.0179995 0.00510914 -1.77685e-17
0.0173359 0.0052995 -1.76399e-17
0.0166667 0.00552101 -2.498e-17
0.0160623 0.00575014 -2.62458e-17
0.0154587 0.00598149 -2.55689e-17
0.0148594 0.00622361 -2.21342e-17
0.0142671 0.00648233 -2.82398e-17
0.0138771 0.00666667 -3.00489e-17
0.0137683 0.00672086 -2.57045e-17
0.01366 0.00677582 -2.13606e-17
0.013552 0.00683153 -1.9793e-17
0.0134444 0.006888 -1.88983e-17
0.0133333 0.00694761 -2.12845e-17
0.0126667 0.00731462 -2.60591e-17
0.0120123 0.00770319 -2.60123e-17
0.0113733 0.00811639 -2.66455e-17
0.0107514 0.0085551 -2.02627e-17
0.01 0.00914558 -1.38778e-17
0.00980935 0.00931646 -1.47893e-17
0.00962035 0.00948917 -1.43172e-17
0.00943302 0.00966368 -1.94575e-17
0.00924741 0.00984002 -1.22883e-17
0.00908235 0.01 -1.249e-17
0.00859921 0.0104767 -5.74812e-18
0.00813918 0.0109757 -1.52301e-17
0.00770375 0.0114963 -1.17252e-17
0.00729196 0.0120359 -8.24763e-18
0.00666667 0.0129269 -1.11022e-17
0.00661669 0.0130082 -1.11855e-17
0.00656701 0.0130897 -1.82071e-17
0.00651764 0.0131713 -1.69015e-17
0.00646857 0.0132532 -1.21601e-17
0.00642064 0.0133333 -1.249e-17
0.00602316 0.014 -6.66134e-18
0.00566204 0.014687 -1.0928e-17
0.0053316 0.0153894 -1.30495e-17
0.00502789 0.0161036 -1.37864e-17
0.004791 0.0166667 -7.98138e-18
0.00451262 0.0173333 -1.26667e-17
0.00427373 0.0180152 -9.10626e-18
0.0040609 0.0187055 -1.63751e-18
0.00385892 0.0193992 -6.48678e-18
0.00369362 0.02 -3.60001e-18
0.00362156 0.0202589 -1.12067e-17
0.00355521 0.0205193 -2.17091e-17
0.00349071 0.0207802 -1.90856e-17
0.00342767 0.0210414 -1.99333e-17
0.00333333 0.021442 -1.99591e-17
0.00324746 0.0218202 -1.81841e-17
0.00316422 0.0221991 -2.10983e-17
0.00308352 0.0225785 -2.12327e-17
0.00300527 0.0229584 -1.30363e-17
0.00293046 0.0233333 -1.94289e-17
0.00279299 0.024 -1.63758e-17
0.00267099 0.0246697 -1.50624e-17
0.0025567 0.0253407 -1.54072e-17
0.00244953 0.0260129 -1.67794e-17
0.00234666 0.0266667 -1.249e-17
0.0022306 0.0273333 -8.74301e-18
0.0021334 0.028003 -8.80488e-18
0.00205181 0.0286748 -5.25666e-18
0.00197594 0.0293472 -7.80088e-18
0.001891 0.03 -6.93889e-18
0.00179156 0.0306667 -1.70697e-17
0.00171217 0.031336 -1.47149e-17
0.00165185 0.0320074 -1.29882e-17
0.00159361 0.0326789 -1.78649e-17
0.0015232 0.0333333 -1.22708e-17
0.00143716 0.034 -1.00233e-17
0.00137258 0.0346691 -1.19801e-17
0.00132776 0.0353398 -1.56212e-17
0.00128386 0.0360105 -1.63018e-17
0.00122593 0.0366667 -1.41846e-17
0.00115106 0.0373333 -1.75294e-17
0.00109922 0.0380022 -1.41782e-17
0.00106137 0.038672 -1.72173e-17
0.00102353 0.0393418 -1.98614e-17
0.000976737 0.04 -1.68922e-17
0.00091143 0.0406667 -7.76284e-18
0.00087105 0.0413353 -7.20659e-18
0.000838352 0.0420044 -9.236e-18
0.000805654 0.0426734 -6.52271e-18
0.000769169 0.0433333 -3.36259e-18
0.000712187 0.044 -8.81881e-18
0.000682398 0.0446684 -7.2397e-18
0.000654174 0.0453369 -1.60195e-18
0.00062595 0.0460054 4.57061e-18
0.000598033 0.0466667 5.94297e-18
0.000548366 0.0473333 -3.23407e-19
0.000524052 0.0480014 1.35006e-18
0.000499739 0.0486695 3.60354e-18
0.000475425 0.0493375 3.18487e-18
0.000451316 0.05 2.02396e-18
0.00040806 0.0506667 7.88998e-18
0.00038713 0.0513344 1.33737e-17
0.000366199 0.0520021 7.42104e-18
0.000345269 0.0526699 8.73764e-18
0.000324473 0.0533333 1.05619e-17
0.000286719 0.054 1.41636e-17
0.00026861 0.0546675 8.71338e-18
0.000250502 0.055335 7.07493e-18
0.000232393 0.0560025 5.26945e-18
0.000214374 0.0566667 6.58189e-18
0.000181102 0.0573333 1.14738e-19
0.000165141 0.0580006 -3.60462e-18
0.00014918 0.0586679 -2.63891e-18
0.000133219 0.0593353 -1.66853e-18
0.000117319 0.06 1.1924e-18
9.38553e-05 0.0605205 -6.77204e-19
8.2371e-05 0.0610415 -5.34165e-18
7.08868e-05 0.0615624 -1.00061e-17
5.94025e-05 0.0620834 -1.3184e-17
3.18469e-05 0.0633333 -1.2543e-17
2.54775e-05 0.0634823 -6.99346e-18
2.21861e-05 0.0636314 -2.66314e-18
1.88948e-05 0.0637804 1.40697e-18
1.56034e-05 0.0639295 3.74236e-18
0 0.0646361 2.16962e-18
0.05 0.00434783 5.94331e-18
0.0493333 0.00434875 6.63567e-18
0.0486667 0.00435274 2.46569e-18
0.048 0.00435911 5.06532e-18
0.0473334 0.00436716 1.06727e-17
0.0466667 0.00437812 1.07501e-17
0.046 0.00439309 6.56182e-18
0.0453334 0.00440973 9.30967e-18
0.0446668 0.004428 7.84176e-18
0.0440003 0.00444791 1.24527e-17
0.0433333 0.00447171 1.59098e-17
0.0426667 0.00450073 1.7144e-17
0.042 0.00453021 1.94219e-17
0.0413334 0.00456038 1.9637e-17
0.0406669 0.0045922 9.38476e-18
0.04 0.00462962 2.69861e-19
0.0393333 0.00467354 -4.97166e-19
0.0386666 0.00471692 -3.34496e-18
0.0379999 0.00475975 -2.70711e-18
0.0373333 0.00480486 -4.73676e-20
0.0366667 0.00485755 3.67849e-18
0.036 0.00491814 2.89965e-18
0.0353332 0.00497745 -2.20328e-18
0.0346663 0.00503547 -3.71024e-18
0.0339998 0.00509718 -1.43429e-18
0.0333333 0.00516789 0
0.0326667 0.00524803 2.77556e-19
0.0319998 0.00532647 1.2495e-18
0.0313327 0.00540318 -1.30053e-18
0.0306664 0.00548591 1.96636e-18
0.03 0.00557878 -6.93889e-18
0.0293333 0.00568279 -1.08247e-17
0.0286664 0.00578504 -1.20038e-17
0.028 0.00589068 -1.15619e-17
0.0273348 0.00600364 -1.01288e-17
0.0266667 0.00612509 -1.11022e-17
0.0261285 0.0062334 -1.99205e-17
0.0255905 0.00634183 -2.31878e-17
0.0250535 0.00645569 -2.16864e-17
0.0245177 0.00657524 -2.03843e-17
0.0241284 0.00666667 -2.49163e-17
0.0239694 0.00670542 -2.81209e-17
0.0238105 0.00674474 -2.57747e-17
0.0236518 0.00678465 -2.82859e-17
0.0234932 0.00682515 -2.6634e-17
0.0233333 0.00686661 -3.08641e-17
0.0226667 0.00704442 -2.69969e-17
0.0220025 0.00723136 -2.8696e-17
0.0213415 0.00742912 -2.92618e-17
0.020684 0.00763819 -2.72767e-17
0.02 0.00787241 -3.30703e-17
0.0193333 0.00812595 -2.96614e-17
0.0186708 0.00839 -3.20509e-17
0.0180127 0.00866517 -3.13473e-17
0.0173621 0.00895745 -2.74072e-17
0.0166667 0.00929849 -3.05311e-17
0.016406 0.00943879 -2.54142e-17
0.0161464 0.00958109 -2.68891e-17
0.015888 0.00972566 -3.201e-17
0.0156314 0.00987321 -3.08887e-17
0.0154167 0.01 -3.60822e-17
0.0150001 0.0102518 -3.78894e-17
0.0145894 0.0105135 -4.4766e-17
0.0141853 0.0107849 -5.13788e-17
0.013788 0.0110663 -4.54719e-17
0.0133333 0.0114083 -4.43256e-17
0.0128565 0.0117933 -2.99374e-17
0.01239 0.0121907 -3.55715e-17
0.0119343 0.0126005 -3.09768e-17
0.0114902 0.0130228 -3.68934e-17
0.0111815 0.0133333 -2.70708e-17
0.0109452 0.0135807 -2.88731e-17
0.0107142 0.0138331 -2.79534e-17
0.0104887 0.0140904 -2.41862e-17
0.0102686 0.0143523 -2.16488e-17
0.01 0.0146851 -3.22419e-17
0.00969602 0.0150814 -3.10374e-17
0.00940127 0.0154846 -2.87527e-17
0.0091157 0.0158944 -2.90585e-17
0.00883883 0.0163101 -3.24138e-17
0.00860958 0.0166667 -2.498e-17
0.008221 0.017289 -3.49751e-17
0.00786004 0.0179278 -3.68587e-17
0.00752548 0.0185808 -3.80662e-17
0.00720942 0.0192429 -3.65857e-17
0.00687246 0.02 -4.25071e-17
0.0068313 0.020099 -5.09365e-17
0.00679077 0.0201982 -4.06425e-17
0.00675074 0.0202977 -4.76961e-17
0.00671112 0.0203973 -4.34744e-17
0.00666667 0.0205104 -3.89706e-17
0.0064477 0.021075 -3.47847e-17
0.00624031 0.0216439 -3.56837e-17
0.00604386 0.0222167 -3.71194e-17
0.00585767 0.022793 -3.12656e-17
0.00568911 0.0233333 -3.60822e-17
0.00547977 0.024 -2.95597e-17
0.00529289 0.0246733 -3.10279e-17
0.00512738 0.0253522 -3.06565e-17
0.00496975 0.0260329 -2.95552e-17
0.00481914 0.0266667 -3.37585e-17
0.00465712 0.0273333 -3.65918e-17
0.0045161 0.0280048 -3.53032e-17
0.00439171 0.0286795 -3.49239e-17
0.00427151 0.0293549 -3.80228e-17
0.00415578 0.03 -3.39824e-17
0.00403101 0.0306667 -3.1693e-17
0.00392544 0.0313366 -2.92912e-17
0.00382419 0.0320073 -2.93636e-17
0.00372657 0.0326785 -2.52772e-17
0.00363481 0.0333333 -2.27065e-17
0.00357451 0.0337558 -2.31169e-17
0.0035192 0.0341789 -2.31875e-17
0.00346523 0.0346022 -2.44743e-17
0.00341258 0.0350257 -2.53698e-17
0.00333333 0.0356793 -2.498e-17
0.0033103 0.0358768 -2.50184e-17
0.00328753 0.0360743 -2.22807e-17
0.00326501 0.0362718 -2.23182e-17
0.00324274 0.0364694 -2.65187e-17
0.00322075 0.0366667 -3.05311e-17
0.00314589 0.0373333 -3.23352e-17
0.00307519 0.0380005 -3.62218e-17
0.00300738 0.0386679 -3.52373e-17
[...]
POINT_DATA 41183
 FIELD attributes 1
U 3 41183 float
-6.43982e-19 	-1.69325e-21 	0
-0.0152075 	2.55941e-05 	0 -0.0152075 	2.55941e-05 	0 -0.0152075 	2.55941e-05 	0 -0.0152075 	2.55941e-05 	0 -0.0152075 	2.55941e-05 	0 -0.0152075 	2.55941e-05 	0 -0.0155409 	5.06405e-05 	0 -0.0157781 	8.87954e-05 	-3.97551e-25 -0.0157383 	0.000163419 	-1.90159e-24 -0.0154851 	0.000220335 	-3.41267e-24 -0.0151612 	0.000270778 	-4.9297e-24 -0.0154857 	0.000263933 	1.93081e-22 -0.0156681 	0.000281606 	3.25447e-22 -0.0155678 	0.000350387 	3.21539e-22 -0.0153342 	0.000425094 	1.92261e-22 -0.015039 	0.000503487 	-6.1597e-24 -0.0153409 	0.000468676 	3.71042e-23 -0.015432 	0.000477628 	5.93183e-23 -0.0152823 	0.000540805 	5.57235e-23 -0.0150781 	0.000623769 	3.15318e-23 -0.0148228 	0.000727592 	-1.40825e-23 -0.0150912 	0.000669689 	-1.03324e-23 -0.0150613 	0.000685405 	-2.71531e-23 -0.0148763 	0.000744128 	-5.57857e-23 -0.0146925 	0.000820592 	-8.55181e-23 -0.014485 	0.000946644 	-1.18219e-22 -0.0147122 	0.000871146 	-8.9262e-23 -0.0145419 	0.000911212 	-8.48251e-23 -0.0143361 	0.000967357 	-8.3711e-23 -0.0141467 	0.00102528 	-8.28731e-23 -0.0139923 	0.00116365 	-1.08876e-22 -0.0140906 	0.00110624 	-1.91626e-22 -0.0138626 	0.00115999 	-1.53959e-22 -0.0136503 	0.00121585 	-1.15714e-22 -0.0134544 	0.00127391 	-7.68685e-23 -0.0133181 	0.00138166 	1.07815e-23 -0.0132714 	0.00136971 	-4.66312e-23 -0.0130864 	0.00141495 	-3.32077e-23 -0.012912 	0.00146194 	-1.91098e-23 -0.0127486 	0.00151074 	-4.31335e-24 -0.0126322 	0.00154953 	7.56701e-24 -0.0125955 	0.00156339 	1.18267e-23 -0.0125596 	0.00157738 	1.6139e-23 -0.0125246 	0.00159151 	2.05043e-23 -0.0124903 	0.00160578 	2.49229e-23 -0.0124197 	0.00165131 	9.1789e-24 -0.0121813 	0.00167937 	6.81213e-24 -0.011978 	0.00173975 	7.7303e-24 -0.0117907 	0.00180343 	8.61774e-24 -0.0116202 	0.00187052 	9.47312e-24 -0.0112629 	0.00213483 	5.13455e-23 -0.0109126 	0.00201371 	3.8018e-22 -0.0107242 	0.00206729 	4.66665e-22 -0.010562 	0.00213706 	5.38845e-22 -0.0102987 	0.00233991 	4.3859e-22 -0.00996516 	0.0026765 	1.80965e-22 -0.00965818 	0.00258423 	4.46597e-22 -0.00934958 	0.00249127 	7.12211e-22 -0.0090369 	0.00259256 	7.26343e-22 -0.00876974 	0.00290252 	4.92885e-22 -0.00854961 	0.0032412 	2.60605e-22 -0.00832611 	0.00319154 	4.64297e-22 -0.00804433 	0.00324975 	4.99938e-22 -0.00774649 	0.00338356 	4.33066e-22 -0.00748229 	0.00353688 	3.62836e-22 -0.0073301 	0.00365301 	3.13618e-22 -0.00728247 	0.00369268 	2.99708e-22 -0.00723631 	0.00373331 	2.85652e-22 -0.00719163 	0.00377491 	2.71451e-22 -0.00713348 	0.00382842 	2.69836e-22 -0.00706754 	0.00389081 	2.74463e-22 -0.00666368 	0.00395724 	1.82222e-22 -0.00639691 	0.00413595 	9.84452e-23 -0.00615987 	0.00434584 	1.92021e-23 -0.00589057 	0.00462889 	2.60922e-23 -0.00561271 	0.00503084 	3.21478e-23 -0.00555105 	0.00507227 	1.8545e-23 -0.00549251 	0.00511662 	4.93577e-24 -0.00543619 	0.00516494 	3.02723e-23 -0.00538255 	0.00521683 	7.77752e-23 -0.00533732 	0.00526612 	1.20433e-22 -0.00503051 	0.00545695 	1.21278e-22 -0.00475662 	0.00568728 	1.1616e-22 -0.0045227 	0.00592554 	1.05032e-22 -0.00432706 	0.00616592 	8.83792e-23 -0.00405993 	0.00660327 	5.36803e-23 -0.00404316 	0.00663139 	8.89307e-23 -0.00402678 	0.00666002 	1.23877e-22 -0.00401077 	0.00668917 	1.58522e-22 -0.00401105 	0.00671066 	8.4558e-23 -0.00401317 	0.00673102 	4.00378e-25 -0.00362727 	0.00690094 	-6.79418e-22 -0.00341519 	0.0072585 	-1.12334e-21 -0.00326287 	0.00767394 	-1.50381e-21 -0.00335318 	0.00796976 	-1.19181e-21 -0.00342722 	0.00820733 	-9.45506e-22 -0.00300153 	0.00856674 	-6.21512e-22 -0.00273678 	0.0088779 	-3.6466e-22 -0.0026439 	0.00907977 	-1.97922e-22 -0.0025607 	0.00930732 	-2.62611e-23 -0.00269054 	0.00966688 	1.78301e-23 -0.00252498 	0.00991016 	1.45166e-24 -0.00247664 	0.0100174 	0 -0.00244106 	0.0101157 	0 -0.00240701 	0.0102188 	0 -0.00235717 	0.0103837 	0 -0.0023145 	0.0105342 	0 -0.00227455 	0.0106937 	0 -0.00223722 	0.0108619 	0 -0.00220243 	0.0110384 	0 -0.00226547 	0.010986 	0 -0.00201892 	0.0110818 	0 -0.00194614 	0.0114272 	0 -0.00188245 	0.0118067 	0 -0.00189236 	0.0120263 	0 -0.00205468 	0.0118023 	0 -0.00173489 	0.0119526 	0 -0.00148713 	0.0122451 	0 -0.00144031 	0.0127644 	0 -0.00163148 	0.0125395 	0 -0.00182011 	0.0122016 	0 -0.00148033 	0.0124822 	0 -0.00115888 	0.0128959 	0 -0.00112703 	0.0129951 	0 -0.00135926 	0.0126357 	0 -0.0015715 	0.0121764 	0 -0.00121645 	0.012603 	0 -0.000882574 	0.0132051 	0 -0.000839913 	0.0128333 	0 -0.00109347 	0.0123846 	0 -0.00132528 	0.0118014 	0 -0.000960026 	0.0123858 	0 -0.000719504 	0.0127336 	0 -0.000694732 	0.0122951 	0 -0.000835936 	0.0117603 	0 -0.00108313 	0.0110568 	0 -0.000713017 	0.0118065 	0 -0.000576971 	0.0118059 	0 -0.000555313 	0.0113627 	0 -0.000599595 	0.0108451 	0 -0.000857487 	0.0100322 	0 -0.000487979 	0.0109497 	0 -0.000447549 	0.0106004 	0 -0.000429038 	0.010162 	0 -0.000410527 	0.00972353 	0 -0.00065774 	0.00882872 	0 -0.000348991 	0.00958937 	0 -0.000333518 	0.0091642 	0 -0.000318044 	0.00873902 	0 -0.00030257 	0.00831385 	0 -0.000481754 	0.00742473 	0 -0.000247887 	0.00790837 	0 -0.000235172 	0.00750273 	0 -0.000222457 	0.00709709 	0 -0.000209743 	0.00669146 	0 -0.000332324 	0.00586811 	2.90015e-37 -0.00016484 	0.00607614 	0 -0.00015443 	0.00569239 	0 -0.000144019 	0.00530864 	0 -0.000133608 	0.00492488 	0 -0.00021026 	0.00421293 	2.92605e-40 -9.92752e-05 	0.00415054 	0 -9.05258e-05 	0.00378475 	0 -8.17764e-05 	0.00341895 	0 -7.3027e-05 	0.00305315 	0 -0.000111889 	0.00248223 	-1.047e-37 -5.0864e-05 	0.00230726 	0 -4.46402e-05 	0.00202494 	0 -3.84164e-05 	0.00174262 	0 -3.21926e-05 	0.0014603 	0 -3.08184e-05 	0.00072076 	0 -1.47686e-05 	0.000668854 	0 -1.28607e-05 	0.000582447 	0 -1.09528e-05 	0.00049604 	0 -9.04485e-06 	0.000409633 	0 0 	0 	0
-0.0295766 	4.08984e-05 	0 -0.0297977 	0.000178282 	0 -0.0299062 	0.000285965 	-7.04264e-25 -0.0298843 	0.000360879 	-2.18553e-24 -0.0296973 	0.000488116 	-1.80137e-23 -0.0293803 	0.000659794 	-4.59803e-23 -0.029512 	0.000736481 	-2.2748e-22 -0.0295708 	0.000810806 	-3.39424e-22 -0.0295129 	0.000881319 	-3.45366e-22 -0.0292334 	0.00104341 	-2.34002e-22 -0.0288529 	0.00125601 	-5.98724e-23 -0.0288967 	0.00127752 	-7.1831e-23 -0.0289133 	0.00130891 	-8.20634e-23 -0.028825 	0.00137606 	-8.5928e-23 -0.0284309 	0.00159523 	-5.72874e-23 -0.028011 	0.00184527 	-2.27866e-23 -0.0279747 	0.00182011 	-4.24429e-23 -0.0279353 	0.00179459 	-6.20989e-23 -0.0277811 	0.00188031 	-8.47105e-23 -0.0273076 	0.00215824 	-8.47198e-23 -0.0268734 	0.00244216 	-8.43789e-23 -0.0267694 	0.00238123 	-2.693e-22 -0.0266588 	0.00231927 	-4.54312e-22 -0.0263544 	0.00244018 	-4.39188e-22 -0.0258876 	0.0027465 	-2.24234e-22 -0.0254629 	0.00306087 	-8.72125e-24 -0.0253065 	0.00297679 	1.51958e-22 -0.0251419 	0.00289113 	3.1257e-22 -0.0246252 	0.00305723 	3.25649e-22 -0.0241831 	0.00337022 	2.38826e-22 -0.0237895 	0.00371161 	1.39418e-22 -0.0235969 	0.00361791 	2.77384e-22 -0.0232094 	0.0036792 	3.13289e-22 -0.0227034 	0.003855 	2.77039e-22 -0.0222261 	0.00404044 	2.39587e-22 -0.0218804 	0.0044042 	9.24706e-23 -0.0216724 	0.00436689 	8.4618e-23 -0.0212742 	0.0045111 	1.15345e-22 -0.0208946 	0.00466267 	1.46586e-22 -0.0205347 	0.00482195 	1.78362e-22 -0.0202874 	0.00494386 	2.01918e-22 -0.020191 	0.00499789 	2.03775e-22 -0.0200966 	0.00505273 	2.05568e-22 -0.0200042 	0.00510839 	2.07296e-22 -0.0199139 	0.00516488 	2.08958e-22 -0.0197591 	0.00526986 	2.17118e-22 -0.0192555 	0.00541997 	1.96875e-22 -0.0188344 	0.00563472 	2.01117e-22 -0.0184451 	0.00586473 	2.02978e-22 -0.0180119 	0.00616835 	2.22264e-22 -0.0174377 	0.00663156 	2.81838e-22 -0.0169491 	0.00675466 	1.59941e-22 -0.0164911 	0.00689621 	3.71926e-23 -0.0159331 	0.00715764 	0 -0.0154816 	0.00759195 	4.00794e-23 -0.0150529 	0.00810143 	8.1003e-23 -0.014909 	0.00817255 	3.47008e-23 -0.0147564 	0.0082572 	0 -0.0145687 	0.00837571 	0 -0.0143886 	0.00849958 	0 -0.0142434 	0.00860848 	0 -0.0139163 	0.00886684 	0 -0.0136127 	0.00914448 	0 -0.0133333 	0.00944172 	0 -0.012993 	0.00977304 	0 -0.0126178 	0.0101887 	0 -0.0122671 	0.0104511 	0 -0.0119499 	0.0107438 	0 -0.0116184 	0.0110473 	0 -0.0113082 	0.0113766 	0 -0.0111127 	0.0116345 	0 -0.0108912 	0.0119042 	0 -0.0106836 	0.0121883 	0 -0.0104733 	0.0124579 	-1.8385e-23 -0.0102632 	0.0127182 	-5.14126e-23 -0.0100173 	0.0130602 	-9.26246e-23 -0.00976585 	0.0133596 	-9.89515e-23 -0.00953675 	0.0136845 	-1.06384e-22 -0.0093348 	0.0140161 	-1.37234e-22 -0.00918009 	0.0142773 	-2.84836e-22 -0.00906215 	0.014514 	-4.10359e-22 -0.00854354 	0.0151192 	-6.34334e-22 -0.00808523 	0.0157804 	-8.23549e-22 -0.00775869 	0.0162544 	-5.28491e-22 -0.00746724 	0.0167776 	-2.38485e-22 -0.00726716 	0.0174776 	1.44005e-22 -0.00719936 	0.0176267 	2.41725e-22 -0.00714277 	0.0177466 	2.7097e-22 -0.00709597 	0.0178408 	2.39841e-22 -0.00705006 	0.0179364 	2.0905e-22 -0.00699899 	0.0180462 	1.74529e-22 -0.00675789 	0.0185391 	1.59335e-22 -0.00654128 	0.0190731 	1.45585e-22 -0.00634771 	0.0196456 	1.33196e-22 -0.00627475 	0.0201158 	1.35373e-22 -0.00638682 	0.0203392 	1.60743e-22 -0.00582086 	0.0209724 	1.00969e-22 -0.00528897 	0.0216937 	4.22762e-23 -0.00519903 	0.0224522 	1.70449e-22 -0.0054215 	0.0228127 	3.56375e-22 -0.00562157 	0.0231317 	5.28086e-22 -0.0050429 	0.0240094 	2.33555e-22 -0.00458005 	0.024843 	0 -0.00447621 	0.0251538 	0 -0.00457881 	0.0255217 	2.91004e-25 -0.00484656 	0.0258972 	8.16584e-25 -0.00426072 	0.0270381 	3.07924e-26 -0.00413967 	0.0274203 	0 -0.00404265 	0.0277955 	0 -0.0039508 	0.0281951 	0 -0.00408147 	0.0285965 	-1.21779e-22 -0.00382195 	0.0292363 	0 -0.00375979 	0.0294913 	0 -0.00369965 	0.0297573 	0 -0.0036415 	0.0300338 	0 -0.00355477 	0.0304766 	0 -0.00353042 	0.0306157 	0 -0.00350644 	0.030757 	0 -0.00348285 	0.0309004 	0 -0.00345963 	0.0310457 	0 -0.00348179 	0.0310048 	0 -0.00333427 	0.0314626 	0 -0.00324432 	0.0319305 	0 -0.00315881 	0.032426 	0 -0.00307756 	0.0329478 	0 -0.00319402 	0.0326051 	0 -0.002891 	0.033279 	0 -0.00280441 	0.033802 	0 -0.00272187 	0.0343534 	0 -0.00265241 	0.0348857 	0 -0.00289654 	0.0338881 	0 -0.00252704 	0.0348057 	0 -0.00238582 	0.0354557 	0 -0.00230579 	0.0360527 	0 -0.00235047 	0.0360191 	0 -0.00259762 	0.0348674 	0 -0.00223405 	0.0359503 	0 -0.00199616 	0.0368749 	0 -0.00191921 	0.0375059 	0 -0.00206248 	0.0368873 	0 -0.00230914 	0.0355882 	0 -0.00195633 	0.0368293 	0 -0.00164707 	0.0380903 	7.59884e-38 -0.00157537 	0.0387433 	6.46755e-37 -0.00180069 	0.0375473 	1.21912e-36 -0.00204499 	0.03611 	1.78463e-36 -0.00170681 	0.0374985 	1.15502e-36 -0.00137602 	0.0390219 	5.3168e-37 -0.00132771 	0.0394896 	7.81735e-40 -0.00157657 	0.0380211 	1.662e-39 -0.00181942 	0.0364553 	2.53197e-39 -0.00149837 	0.0379788 	1.5766e-39 -0.001184 	0.0396401 	6.30312e-40 -0.00115295 	0.0399117 	-3.95365e-37 -0.00140515 	0.0383294 	-9.73613e-37 -0.00165168 	0.0366422 	-1.54556e-36 -0.00134851 	0.0382899 	-9.23785e-37 -0.00105148 	0.0400774 	-3.07631e-37 -0.00103978 	0.0401875 	0 -0.00130712 	0.0384952 	0 -0.0015686 	0.0366853 	0 -0.00128232 	0.038454 	0 -0.00100202 	0.0403653 	0 -0.00100689 	0.0403207 	0 -0.00131011 	0.0385097 	0 -0.00160628 	0.0365573 	0 -0.00133499 	0.0384613 	0 -0.00107012 	0.0405146 	0 -0.00107758 	0.0402712 	0 -0.00144925 	0.0383064 	0 -0.00181057 	0.0361558 	0 -0.00155398 	0.0382468 	0 -0.00130541 	0.0405013 	0 -0.00128223 	0.0398828 	0 -0.00175767 	0.0377045 	0 -0.00222536 	0.0352321 	0 -0.00199092 	0.0376387 	0 -0.00180311 	0.0394626 	0 -0.00175689 	0.038451 	0 -0.00221569 	0.036185 	0 -0.00283431 	0.0331442 	0 -0.00264987 	0.0361546 	0 -0.00250545 	0.0369083 	0 -0.00238981 	0.0352047 	0 -0.00261879 	0.0327376 	0 -0.00341128 	0.0286841 	0 -0.00334863 	0.0329147 	0 -0.00308143 	0.03084 	0 -0.00278368 	0.02786 	0 -0.00248593 	0.02488 	0 -0.00316728 	0.0194889 	0 -0.00306869 	0.0221046 	0 -0.00241106 	0.0173676 	0 -0.00175344 	0.0126305 	0 -0.00109581 	0.00789343 	0 -0.000138505 	0.000665406 	0 -0.000146014 	0.00084743 	0 -0.000115598 	0.000670903 	0 -8.51819e-05 	0.000494375 	0 -5.47659e-05 	0.000317848 	0 0 	0 	0
-0.0429874 	4.44428e-05 	0 -0.0429563 	0.000256068 	-2.04244e-23 -0.0428743 	0.000488757 	-4.66427e-23 -0.0428129 	0.000721956 	-7.30015e-23 -0.0427722 	0.000955661 	-9.95007e-23 -0.0427077 	0.0011799 	-1.26391e-22 -0.0425605 	0.00137524 	-1.55762e-22 -0.0423756 	0.00159363 	-1.56393e-22 -0.0422105 	0.00181354 	-1.56224e-22 -0.0420653 	0.00203498 	-1.55248e-22 -0.0420154 	0.00212409 	-1.54532e-22 -0.0420025 	0.00215118 	-1.54844e-22 -0.0419899 	0.00217831 	-1.55151e-22 -0.0419776 	0.00220545 	-1.55454e-22 -0.0419656 	0.00223263 	-1.55752e-22 -0.0419444 	0.00226446 	-1.56859e-22 -0.0416677 	0.00247166 	-1.28637e-22 -0.0414066 	0.0026804 	-1.00398e-22 -0.041166 	0.00289182 	-7.1968e-23 -0.0409461 	0.00310593 	-4.3344e-23 -0.0406339 	0.00338173 	-2.00397e-23 -0.0403208 	0.00357771 	-7.06869e-24 -0.0399984 	0.00378092 	1.38123e-24 -0.0396966 	0.00398784 	1.00267e-23 -0.0394158 	0.00419853 	1.88718e-23 -0.038893 	0.00455888 	1.80294e-23 -0.0385328 	0.00471525 	2.06737e-22 -0.0381725 	0.00491967 	2.49586e-22 -0.0378335 	0.00512899 	2.937e-22 -0.0374164 	0.00540238 	2.69764e-22 -0.0367759 	0.00583193 	7.42843e-23 -0.0363575 	0.00596489 	4.74903e-23 -0.0359631 	0.00612131 	3.00017e-23 -0.0356113 	0.00634132 	4.19629e-23 -0.0349592 	0.00677274 	7.43369e-23 -0.0343326 	0.00723057 	1.06981e-22 -0.0338887 	0.00736171 	5.82538e-23 -0.0334625 	0.00749961 	9.32609e-24 -0.0328034 	0.00781513 	5.89157e-26 -0.032191 	0.00828093 	1.65924e-23 -0.0316119 	0.0087752 	3.29717e-23 -0.0311755 	0.00892392 	5.07825e-24 -0.0305289 	0.00924681 	0 -0.029868 	0.00962529 	0 -0.0292495 	0.0100256 	0 -0.0286904 	0.0104378 	0 -0.0286834 	0.0104441 	0 -0.0286764 	0.0104505 	0 -0.0286695 	0.0104568 	0 -0.0286613 	0.0104638 	0 -0.0286505 	0.0104721 	0 -0.0279901 	0.0108684 	0 -0.027376 	0.0112946 	0 -0.0268068 	0.0117488 	0 -0.0261851 	0.01228 	0 -0.0254037 	0.0129741 	0 -0.0247667 	0.0133674 	0 -0.0241619 	0.0138033 	0 -0.0234189 	0.0143503 	0 -0.0227429 	0.0149454 	0 -0.0220461 	0.015687 	0 -0.0220457 	0.0156875 	0 -0.0220452 	0.0156879 	0 -0.0220446 	0.0156884 	0 -0.022044 	0.0156889 	0 -0.0220433 	0.0156894 	0 -0.0212804 	0.0163168 	0 -0.0205855 	0.0170077 	0 -0.0199462 	0.0177577 	-2.7938e-26 -0.0192338 	0.0185251 	-3.29179e-25 -0.0183986 	0.0196221 	-7.26041e-25 -0.0183059 	0.0197459 	-7.27836e-25 -0.0182152 	0.0198716 	-7.29947e-25 -0.0181211 	0.0199897 	-6.86817e-24 -0.0180212 	0.0200965 	-2.15074e-23 -0.0179284 	0.0201996 	-3.53968e-23 -0.01715 	0.0210383 	-3.15043e-23 -0.0164509 	0.0219671 	-2.42078e-23 -0.0157971 	0.0228281 	-5.22958e-23 -0.015225 	0.0236972 	-1.11138e-22 -0.0148258 	0.0245879 	-1.89742e-22 -0.0147324 	0.0247832 	-2.54055e-22 -0.0146406 	0.0249747 	-3.03625e-22 -0.0145477 	0.0251232 	-2.41141e-22 -0.0144566 	0.0252736 	-1.79075e-22 -0.0143579 	0.0254415 	-1.11077e-22 -0.0139065 	0.0261617 	2.50076e-22 -0.0134976 	0.0269352 	5.98965e-22 -0.0131296 	0.027759 	9.35959e-22 -0.0128885 	0.0283511 	6.44195e-22 -0.0127207 	0.0288316 	2.27398e-22 -0.0120742 	0.029903 	-1.27638e-22 -0.0114818 	0.0310582 	-4.87469e-22 -0.0111067 	0.0317521 	-8.80011e-23 -0.0108724 	0.0325195 	6.59744e-22 -0.0107787 	0.0332656 	1.62943e-21 -0.0104334 	0.034111 	2.27537e-21 -0.0101977 	0.0346797 	2.03878e-21 -0.0100001 	0.0351807 	1.55481e-21 -0.00981198 	0.0356996 	1.081e-21 -0.00955221 	0.0364782 	4.0702e-22 -0.00946194 	0.0367793 	3.05016e-22 -0.00937418 	0.0370854 	2.03272e-22 -0.00928891 	0.0373963 	1.01784e-22 -0.00920937 	0.0377058 	2.85373e-24 -0.00927408 	0.0377593 	3.02355e-24 -0.00876407 	0.0386842 	-8.45852e-23 -0.00849308 	0.03967 	-2.94575e-22 -0.00824401 	0.0407027 	-5.08486e-22 -0.00814794 	0.0415097 	-7.25794e-22 -0.00838647 	0.0416632 	-9.37814e-22 -0.0077136 	0.0428238 	-6.14311e-22 -0.00711913 	0.0440656 	-1.58399e-22 -0.00694084 	0.0452167 	1.24529e-21 -0.00723526 	0.0453786 	2.36574e-21 -0.00751301 	0.0455063 	3.4481e-21 -0.00683569 	0.0468948 	1.91855e-21 -0.00618524 	0.0483864 	4.09963e-22 -0.00602567 	0.0490137 	6.57633e-25 -0.00634923 	0.0491372 	3.63318e-24 -0.00665682 	0.0492215 	6.52805e-24 -0.00598005 	0.0508302 	2.69943e-24 -0.00548024 	0.0521434 	0 -0.00537285 	0.0525368 	0 -0.00550419 	0.0527473 	-2.99985e-21 -0.00583107 	0.0527678 	-8.49753e-21 -0.0051604 	0.0545819 	-1.61471e-21 -0.00492302 	0.0553235 	0 -0.00481916 	0.055742 	0 -0.00471795 	0.0561814 	0 -0.00505247 	0.0561192 	-1.07768e-23 -0.00448601 	0.057832 	0 -0.00438436 	0.0582458 	0 -0.00428507 	0.0586807 	0 -0.00418808 	0.0591365 	0 -0.00433418 	0.0592328 	2.53484e-21 -0.0039732 	0.0604584 	3.29739e-37 -0.00387901 	0.060881 	9.65093e-37 -0.00378679 	0.0613239 	1.59933e-36 -0.00369652 	0.0617869 	2.23248e-36 -0.00369579 	0.062096 	2.97934e-36 -0.0035435 	0.0627034 	3.24083e-36 -0.00348922 	0.0629788 	2.69476e-36 -0.00343563 	0.0632622 	2.1517e-36 -0.00338272 	0.0635537 	1.61161e-36 -0.00331228 	0.0639574 	8.87188e-37 -0.00328904 	0.064098 	7.0149e-37 -0.00326595 	0.06424 	5.15872e-37 -0.00324298 	0.0643837 	3.30333e-37 -0.00322015 	0.0645288 	1.44874e-37 -0.00322005 	0.0645193 	4.48112e-39 -0.00313546 	0.0650163 	-5.16863e-37 -0.00307282 	0.0654449 	-1.08413e-36 -0.00301135 	0.0658887 	-1.65218e-36 -0.00295103 	0.0663474 	-2.22102e-36 -0.00298149 	0.066144 	-2.78994e-36 -0.00286118 	0.0669537 	-2.16816e-36 -0.00283121 	0.0673893 	-1.54771e-36 -0.0028019 	0.0678341 	-9.27678e-37 -0.00277323 	0.068288 	-3.08046e-37 -0.00288864 	0.0675576 	0 -0.00274181 	0.0687141 	0 -0.00276528 	0.0691741 	0 -0.00278868 	0.069633 	0 -0.00281201 	0.070091 	0 -0.00302287 	0.0687973 	0 -0.00284264 	0.0703543 	0 -0.00295241 	0.0708727 	0 -0.00306079 	0.0713729 	0 -0.00316782 	0.0718551 	0 -0.00349887 	0.0698698 	0 -0.0032484 	0.0719419 	0 -0.00349566 	0.0725778 	0 -0.00373871 	0.0731666 	0 -0.00400605 	0.073317 	0 -0.00446511 	0.0706919 	0 -0.00423067 	0.0730985 	0 -0.00450505 	0.0743553 	0 -0.00495621 	0.0751146 	0 -0.00546683 	0.0742261 	0 -0.00606524 	0.0709264 	0 -0.00588079 	0.0739368 	0 -0.00603753 	0.0763371 	0 -0.00679704 	0.0774129 	0 -0.00756226 	0.0743357 	0 -0.00829807 	0.069775 	0 -0.00823542 	0.0740057 	0 -0.00819348 	0.0784146 	0 -0.00905889 	0.0786423 	0 -0.00988991 	0.072286 	0 -0.0106254 	0.0653804 	0 -0.0108343 	0.0721339 	0 -0.0110966 	0.0792266 	0 -0.0105383 	0.0755494 	0 -0.011008 	0.0652702 	0 -0.0112814 	0.0541979 	0 -0.0120043 	0.0663588 	0 -0.0114767 	0.0666081 	0 -0.00996928 	0.0578593 	0 -0.00846184 	0.0491105 	0 -0.00716493 	0.0310968 	0 -0.00786694 	0.046003 	0 -0.00639041 	0.0373688 	0 -0.00491388 	0.0287346 	0 -0.00343735 	0.0201004 	0 0 	0 	0