# vtk DataFile Version 2.0
track0
ASCII
DATASET POLYDATA
POINTS 39970 float
0.05 8.57988e-20 2.57396e-18
0.05 0.00217391 -1.05592e-17
0.05 0.00217391 -1.05592e-17
0.05 0.00217391 -1.05592e-17
0.05 0.00217391 -1.05592e-17
0.05 0.00217391 -1.05592e-17
0.05 0.00217391 -1.38778e-17
0.0493333 0.00217535 -8.74301e-18
0.0486667 0.00217776 -4.71845e-18
0.048 0.0021817 -5.07504e-18
0.0473334 0.00218876 -8.50225e-18
0.0466667 0.00219841 -1.11022e-17
0.046 0.00221052 -5.27356e-18
0.0453333 0.00222203 -1.59593e-18
0.0446667 0.00223412 1.95112e-18
0.044 0.0022492 -5.14013e-18
0.0433333 0.00226776 -1.38778e-17
0.0426667 0.00229019 2.35922e-18
0.0419999 0.00231062 3.26085e-18
0.0413332 0.0023313 1.26336e-18
0.0406666 0.0023549 -4.61559e-18
0.04 0.00238248 -6.93889e-18
0.0393333 0.00241523 2.77556e-19
0.0386665 0.00244482 1.5268e-18
0.0379997 0.00247514 3.21945e-18
0.0373331 0.00250845 1.10178e-17
0.0366667 0.00254561 0
0.036 0.00258913 2.77556e-19
0.0353331 0.00262855 1.52911e-18
0.0346663 0.00267026 -3.71477e-18
0.0339997 0.00271515 -6.24039e-18
0.0333333 0.00276334 -6.93889e-18
0.0326667 0.00281867 -5.82867e-18
0.0319998 0.00287092 -4.02414e-18
0.0313331 0.00292657 -4.00843e-18
0.0306668 0.00298578 -8.14201e-18
0.03 0.00304875 0
0.02945 0.00310567 9.15881e-19
0.0289 0.00316229 3.21959e-18
0.0283503 0.00322157 1.05592e-18
0.0278009 0.00328361 1.80608e-18
0.0273802 0.00333333 5.25184e-18
0.0272375 0.00335079 9.75259e-18
0.0270948 0.00336845 1.0695e-18
0.0269522 0.00338632 3.48871e-18
0.0268095 0.0034044 4.5202e-18
0.0266667 0.00342271 1.61105e-18
0.026 0.00351111 4.60742e-18
0.0253338 0.00360271 4.83623e-18
0.0246682 0.00369911 8.53227e-18
0.0240034 0.00380052 2.35356e-18
0.0233333 0.00390809 4.59396e-18
0.0226667 0.00403408 -2.55475e-18
0.0219994 0.00415682 -2.75917e-18
0.0213331 0.0042849 -1.52448e-18
0.0206681 0.00441909 1.73215e-18
0.02 0.0045704 1.22723e-17
0.0193333 0.00474895 1.1876e-17
0.0186665 0.00492683 7.49649e-18
0.0179995 0.005104 6.41807e-18
0.0173359 0.00529375 1.01013e-17
0.0166667 0.00551462 4.16334e-18
0.0160575 0.00574503 1.12362e-17
0.0154492 0.00597768 2.16288e-18
0.0148452 0.00622132 -2.66413e-18
0.0142483 0.00648192 -8.06909e-18
0.0138577 0.00666667 -9.19996e-18
0.0137528 0.00671899 2.07693e-18
0.0136483 0.00677202 6.41433e-18
0.0135442 0.00682576 5.20001e-18
0.0134404 0.00688021 3.90702e-18
0.0133333 0.00693759 3.71216e-18
0.0126667 0.00730386 -3.83669e-18
0.0120124 0.00769191 -3.19588e-19
0.0113736 0.00810475 -2.11272e-18
0.010752 0.00854323 6.97792e-19
0.01 0.00913455 -6.93889e-18
0.00980726 0.00930764 -9.06303e-19
0.00961623 0.00948262 -5.98023e-18
0.00942694 0.00965949 1.34405e-18
0.00923945 0.00983825 3.65126e-18
0.00907324 0.01 4.16334e-18
0.00859192 0.010477 1.0906e-17
0.00813388 0.0109764 3.49163e-18
0.00770058 0.0114974 7.0169e-18
0.00729098 0.0120373 1.36076e-17
0.00666667 0.0129323 6.93889e-18
0.00661769 0.0130125 5.46955e-18
0.00656901 0.0130929 1.09396e-17
0.00652062 0.0131735 6.69568e-18
0.00647253 0.0132542 1.00377e-17
0.00642555 0.0133333 6.93889e-18
0.0060307 0.014 2.17881e-17
0.00567194 0.0146868 1.6828e-17
0.00534365 0.0153886 1.75118e-17
0.00504217 0.0161024 1.26387e-17
0.00480622 0.0166667 1.30468e-17
0.00452946 0.0173333 1.5131e-17
0.00429184 0.0180149 1.84662e-17
0.0040805 0.0187051 1.88364e-17
0.00387984 0.0193985 2.26634e-17
0.00371527 0.02 2.25515e-17
0.00363888 0.020275 2.33148e-17
0.00356885 0.0205516 1.23225e-17
0.00350087 0.0208288 8.04006e-18
0.0034345 0.0211063 1.83273e-17
0.00333333 0.0215402 1.48813e-17
0.00325294 0.0218988 1.09683e-17
0.00317485 0.022258 1.36139e-17
0.00309898 0.0226176 2.18142e-17
0.00302527 0.0229776 2.58548e-17
0.00295458 0.0233333 2.498e-17
0.00281795 0.024 3.35842e-17
0.00269612 0.0246695 3.4204e-17
0.00258186 0.0253404 4.14289e-17
0.00247456 0.0260124 4.43454e-17
0.00237197 0.0266667 3.60822e-17
0.00225636 0.0273333 4.32987e-17
0.00215933 0.028003 4.63592e-17
0.00207717 0.0286746 5.16845e-17
0.00200061 0.0293468 5.5302e-17
0.00191562 0.03 5.68989e-17
0.00181627 0.0306667 6.55032e-17
0.0017367 0.031336 6.57763e-17
0.00167594 0.0320073 6.29442e-17
0.00161727 0.0326787 5.98899e-17
0.00154653 0.0333333 6.19157e-17
0.00146027 0.034 6.41654e-17
0.00139518 0.0346691 6.58566e-17
0.00134963 0.0353397 6.58272e-17
0.00130506 0.0360105 6.90818e-17
0.00124654 0.0366667 7.14764e-17
0.00117116 0.0373333 7.75e-17
0.00111856 0.0380022 8.29341e-17
0.00108037 0.038672 8.23558e-17
0.00104219 0.0393418 7.9049e-17
0.000994598 0.04 8.57737e-17
0.000928512 0.0406667 9.00471e-17
0.000887165 0.0413353 9.12989e-17
0.000853975 0.0420044 8.72145e-17
0.000820785 0.0426735 9.35962e-17
0.000783357 0.0433333 8.26561e-17
0.000725349 0.044 9.03855e-17
0.000694479 0.0446685 8.91909e-17
0.00066562 0.045337 8.61749e-17
0.000636762 0.0460056 8.57554e-17
0.000608228 0.0466667 8.0866e-17
0.000557309 0.0473333 8.7352e-17
0.000532233 0.0480015 8.87666e-17
0.000507157 0.0486696 9.10334e-17
0.000482082 0.0493377 9.06146e-17
0.000457227 0.05 8.94442e-17
0.000412507 0.0506667 8.9935e-17
0.000390697 0.0513345 8.48384e-17
0.000368888 0.0520023 8.89528e-17
0.000347078 0.0526701 8.99224e-17
0.000325418 0.0533333 9.52148e-17
0.000286002 0.054 1.02636e-16
0.000266906 0.0546676 1.07249e-16
0.000247811 0.0553351 1.10117e-16
0.000228715 0.0560027 1.0172e-16
0.000209721 0.0566667 9.26319e-17
0.000174602 0.0573333 1.0178e-16
0.000157551 0.0580007 1.01879e-16
0.000140501 0.0586681 9.41584e-17
0.000123451 0.0593355 9.3394e-17
0.000106472 0.06 8.44772e-17
8.5178e-05 0.0604426 8.69845e-17
7.46257e-05 0.0608856 8.94745e-17
6.40733e-05 0.0613286 9.50871e-17
5.3521e-05 0.0617716 8.70818e-17
1.63216e-05 0.0633333 8.74029e-17
1.30573e-05 0.0634042 8.84371e-17
1.13551e-05 0.0634752 8.53923e-17
9.65295e-06 0.0635462 8.22173e-17
7.95078e-06 0.0636171 7.88689e-17
0 0.0639486 8.22097e-17
0.05 0.00434783 5.94331e-18
0.0493333 0.00434921 5.24713e-18
0.0486667 0.00435356 4.54598e-18
0.048 0.00436025 1.59587e-18
0.0473334 0.0043686 5.12396e-18
0.0466667 0.00437987 1.28289e-17
0.046 0.00439517 1.76606e-17
0.0453334 0.00441206 1.90202e-17
0.0446668 0.00443055 1.96379e-17
0.0440002 0.00445065 2.15007e-17
0.0433333 0.00447466 2.56439e-17
0.0426667 0.00450391 2.58388e-17
0.042 0.00453356 2.63832e-17
0.0413334 0.00456385 2.65759e-17
0.0406669 0.00459578 2.53801e-17
0.04 0.00463333 1.65701e-17
0.0393333 0.0046774 1.58028e-17
0.0386666 0.00472088 1.1914e-17
0.0379999 0.00476377 1.30856e-17
0.0373333 0.00480895 1.45311e-17
0.0366667 0.00486171 1.59535e-17
0.036 0.00492237 1.04901e-17
0.0353332 0.00498173 6.92632e-18
0.0346663 0.00503976 8.50481e-18
0.0339997 0.0051015 9.43645e-18
0.0333333 0.00517221 6.93889e-18
0.0326667 0.00525237 5.82867e-18
0.0319998 0.00533081 6.45368e-18
0.0313327 0.0054075 3.28572e-18
0.0306664 0.00549022 3.34695e-18
0.03 0.00558306 0
0.0293333 0.00568704 -3.88578e-18
0.0286664 0.00578925 -8.88133e-18
0.028 0.00589489 -1.15549e-17
0.0273348 0.00600782 -9.44967e-18
0.0266667 0.00612923 -5.55112e-18
0.0261324 0.00623672 -8.82474e-18
0.0255982 0.00634431 -1.14045e-17
0.0250651 0.00645725 -1.16009e-17
0.0245332 0.0065758 -1.75821e-17
0.0241455 0.00666667 -2.07815e-17
0.0239831 0.00670618 -1.01026e-17
0.0238208 0.00674629 -1.46896e-17
0.0236587 0.00678702 -1.30318e-17
0.0234967 0.00682835 -7.21091e-18
0.0233333 0.00687069 -2.11565e-17
0.0226667 0.00704852 -1.45137e-17
0.0220025 0.00723546 -1.62128e-17
0.0213415 0.00743324 -1.33023e-17
0.020684 0.00764234 -1.54736e-17
0.02 0.00787666 -1.08552e-17
0.0193333 0.00813031 -6.57869e-18
0.0186708 0.00839452 -8.80555e-18
0.0180128 0.00866989 -1.12382e-17
0.0173623 0.00896244 -1.49255e-17
0.0166667 0.00930393 -1.11022e-17
0.0164084 0.00944315 -1.15324e-17
0.0161512 0.00958434 -1.71826e-17
0.0158952 0.00972777 -1.46747e-17
0.0156409 0.00987414 -1.56389e-17
0.015428 0.01 -1.249e-17
0.0150091 0.0102535 -1.9851e-17
0.0145963 0.0105168 -1.91036e-17
0.0141901 0.0107902 -2.84885e-17
0.0137909 0.0110737 -2.67295e-17
0.0133333 0.0114188 -2.31794e-17
0.0128608 0.0118017 -1.74403e-17
0.0123984 0.0121969 -2.16797e-17
0.0119468 0.0126043 -2.37118e-17
0.0115067 0.0130241 -2.85371e-17
0.0112001 0.0133333 -3.00325e-17
0.0109601 0.0135853 -2.69404e-17
0.0107256 0.0138424 -1.90466e-17
0.0104968 0.0141046 -2.48699e-17
0.0102735 0.0143715 -2.64822e-17
0.01 0.0147123 -2.80033e-17
0.00970213 0.0151032 -3.10272e-17
0.0094132 0.0155007 -2.45695e-17
0.00913316 0.0159045 -2.6312e-17
0.00886158 0.0163141 -2.03086e-17
0.00863574 0.0166667 -1.94289e-17
0.00824192 0.0172994 -1.89634e-17
0.00787652 0.017949 -1.71814e-17
0.00753821 0.0186131 -2.08116e-17
0.00721881 0.0192865 -2.39867e-17
0.00690346 0.02 -2.30007e-17
0.0068561 0.0201139 -3.28335e-17
0.00680956 0.0202282 -3.30779e-17
0.00676369 0.0203428 -2.47442e-17
0.00671835 0.0204575 -1.97938e-17
0.00666667 0.0205901 -2.07303e-17
0.00645608 0.0211388 -2.28293e-17
0.00625621 0.0216914 -1.0398e-17
0.00606648 0.0222476 -5.16286e-18
0.00588627 0.022807 1.29963e-18
0.00572239 0.0233333 0
0.00551344 0.024 5.13478e-18
0.00532673 0.0246732 4.70751e-18
0.00516118 0.025352 4.24186e-18
0.00500341 0.0260326 -3.81394e-18
0.00485252 0.0266667 -3.14397e-18
0.00469025 0.0273333 -8.75349e-18
0.00454878 0.0280047 -6.30103e-18
0.0044244 0.0286795 -8.55619e-18
0.00430412 0.029355 -1.507e-17
0.00418771 0.03 -1.66884e-17
0.0040622 0.0306667 -1.71733e-17
0.00395574 0.0313366 -1.33822e-17
0.00385411 0.0320074 -1.51391e-17
0.00375604 0.0326786 -1.97264e-17
0.0036638 0.0333333 -2.55304e-17
0.00359771 0.0337912 -2.27495e-17
0.00353746 0.0342499 -1.82424e-17
0.00347877 0.0347088 -1.59926e-17
0.00342159 0.0351679 -1.32901e-17
0.00333333 0.0358955 -1.249e-17
0.00331539 0.0360497 -9.74433e-18
0.0032976 0.036204 -8.38617e-18
0.00327997 0.0363583 -9.80333e-18
0.00326248 0.0365125 -9.83245e-18
0.00324516 0.0366667 -1.38778e-17
0.00316978 0.0373333 -6.66134e-18
0.00309827 0.0380004 -2.5681e-18
0.00302958 0.0386678 -1.89364e-18
0.0029636 0.0393355 -1.1718e-17
0.00290055 0.04 -6.93889e-18
0.00283446 0.0406667 -3.19189e-18
0.00277551 0.041334 2.28872e-18
[...]
POINT_DATA 39970
 FIELD attributes 1
U 3 39970 float
-6.17059e-19 	-1.47715e-21 	0
-0.01454 	3.13498e-05 	0 -0.01454 	3.13498e-05 	0 -0.01454 	3.13498e-05 	0 -0.01454 	3.13498e-05 	0 -0.01454 	3.13498e-05 	0 -0.01454 	3.13498e-05 	0 -0.0148674 	5.38265e-05 	0 -0.0150994 	8.90553e-05 	-5.0461e-25 -0.015059 	0.000159621 	-2.40821e-24 -0.01481 	0.000214358 	-4.32063e-24 -0.0144913 	0.00026329 	-6.24063e-24 -0.0148104 	0.000255686 	2.43309e-22 -0.0149894 	0.000271772 	4.09499e-22 -0.0148918 	0.000336802 	4.04215e-22 -0.0146623 	0.000408172 	2.4153e-22 -0.0143707 	0.000483477 	-8.85594e-24 -0.0146686 	0.000449564 	8.65434e-23 -0.0147591 	0.000457735 	1.42477e-22 -0.014615 	0.000517508 	1.50534e-22 -0.0144149 	0.000596397 	1.1354e-22 -0.014161 	0.000695665 	2.9166e-23 -0.0144273 	0.000640079 	2.14057e-23 -0.0144007 	0.000655007 	9.02876e-24 -0.0142233 	0.000710645 	-5.93178e-24 -0.0140448 	0.000783107 	-1.89436e-23 -0.0138364 	0.000903308 	-2.61794e-23 -0.0140635 	0.000831253 	-1.97709e-23 -0.0139007 	0.000869543 	-2.73011e-23 -0.0137039 	0.000922835 	-3.66283e-23 -0.0135225 	0.000977811 	-4.60563e-23 -0.0133654 	0.00110935 	-6.14513e-23 -0.0134666 	0.00105496 	-1.37083e-22 -0.0132489 	0.00110608 	-1.12119e-22 -0.013046 	0.00115919 	-8.66341e-23 -0.0128586 	0.00121439 	-6.06059e-23 -0.0127233 	0.00131674 	9.28259e-24 -0.0126823 	0.00130557 	-4.08282e-23 -0.0125056 	0.00134864 	-2.90806e-23 -0.012339 	0.00139337 	-1.67448e-23 -0.0121828 	0.00143982 	-3.79982e-24 -0.0120713 	0.00147676 	6.60087e-24 -0.0120362 	0.00148995 	1.03303e-23 -0.0120018 	0.00150327 	1.41057e-23 -0.0119682 	0.00151672 	1.79273e-23 -0.0119354 	0.0015303 	2.17955e-23 -0.0118673 	0.0015735 	8.0467e-24 -0.0116405 	0.00160042 	6.05843e-24 -0.0114461 	0.00165795 	6.95347e-24 -0.011267 	0.00171861 	7.82076e-24 -0.0111038 	0.00178252 	8.6591e-24 -0.0107583 	0.00203318 	4.68128e-23 -0.0104292 	0.0019185 	3.47059e-22 -0.0102498 	0.00197028 	4.25024e-22 -0.0100946 	0.0020368 	4.90779e-22 -0.00984041 	0.00222877 	4.00521e-22 -0.00951538 	0.00254841 	1.65813e-22 -0.00922655 	0.00246129 	4.11615e-22 -0.00893612 	0.00237349 	6.574e-22 -0.00863935 	0.00247045 	6.70878e-22 -0.00837792 	0.00276498 	4.55476e-22 -0.00816109 	0.00308681 	2.41208e-22 -0.00794882 	0.00304004 	4.32876e-22 -0.00767719 	0.00309687 	4.66224e-22 -0.00738864 	0.00322586 	4.03885e-22 -0.00713257 	0.00337379 	3.38338e-22 -0.00698587 	0.00348527 	2.92619e-22 -0.00694177 	0.00352191 	2.80197e-22 -0.00689897 	0.0035594 	2.67649e-22 -0.00685749 	0.00359775 	2.54973e-22 -0.00680331 	0.00364688 	2.53582e-22 -0.00674185 	0.00370398 	2.57762e-22 -0.00635933 	0.00377197 	1.71864e-22 -0.0061022 	0.00394331 	9.35567e-23 -0.00587414 	0.00414392 	1.84645e-23 -0.00561277 	0.00441344 	2.49445e-23 -0.0053417 	0.00479699 	3.0632e-23 -0.00528175 	0.00483806 	1.76835e-23 -0.00522489 	0.004882 	4.72884e-24 -0.00516996 	0.00492941 	2.81169e-23 -0.00511754 	0.00498009 	7.24006e-23 -0.00507347 	0.00502811 	1.12053e-22 -0.00478074 	0.00521233 	1.12574e-22 -0.00451933 	0.00543423 	1.07574e-22 -0.00429625 	0.00566239 	9.70147e-23 -0.00410969 	0.00589176 	8.13623e-23 -0.00385353 	0.00631046 	4.87827e-23 -0.00383775 	0.00633726 	8.05414e-23 -0.00382234 	0.00636454 	1.12027e-22 -0.00380728 	0.0063923 	1.4324e-22 -0.00380735 	0.00641251 	7.68652e-23 -0.00380929 	0.00643154 	3.48271e-25 -0.0034471 	0.00659883 	-6.19924e-22 -0.00324627 	0.00693999 	-1.02538e-21 -0.00309907 	0.00733741 	-1.38064e-21 -0.00318464 	0.00761608 	-1.09337e-21 -0.00325486 	0.00784035 	-8.65915e-22 -0.00285249 	0.00818225 	-5.70991e-22 -0.00259733 	0.00848253 	-3.32538e-22 -0.00251006 	0.0086732 	-1.77418e-22 -0.00243175 	0.00888781 	-1.78113e-23 -0.00256535 	0.00923424 	1.11589e-23 -0.00239903 	0.009478 	8.93589e-25 -0.00235114 	0.00958554 	0 -0.00231597 	0.00968453 	0 -0.00228238 	0.00978849 	0 -0.00223238 	0.00995836 	0 -0.00219504 	0.0100948 	0 -0.00215995 	0.0102387 	0 -0.00212703 	0.0103898 	0 -0.00209621 	0.0105478 	0 -0.0021522 	0.0105009 	0 -0.00192936 	0.0106037 	0 -0.00186136 	0.0109284 	0 -0.00180175 	0.0112846 	0 -0.00180466 	0.011509 	0 -0.00195894 	0.0112957 	0 -0.00165735 	0.0114385 	0 -0.00143405 	0.0117223 	0 -0.00139047 	0.0122094 	0 -0.00156385 	0.0120189 	0 -0.00174347 	0.0116992 	0 -0.00142219 	0.0119632 	0 -0.001118 	0.0123514 	0 -0.00109035 	0.0124788 	0 -0.00131189 	0.0121392 	0 -0.0015146 	0.0117056 	0 -0.00117764 	0.0121058 	0 -0.000860503 	0.0126701 	0 -0.000820417 	0.0123467 	0 -0.0010635 	0.0119234 	0 -0.00128591 	0.0113732 	0 -0.000937596 	0.0119215 	0 -0.000699941 	0.0122794 	0 -0.000676049 	0.0118603 	0 -0.000820931 	0.011352 	0 -0.00105948 	0.0106879 	0 -0.000704458 	0.0113925 	0 -0.000566275 	0.0114161 	0 -0.00054509 	0.010989 	0 -0.000594953 	0.0104878 	0 -0.000845708 	0.00971951 	0 -0.000488786 	0.0105842 	0 -0.000443181 	0.0102673 	0 -0.000424765 	0.00984066 	0 -0.000406349 	0.00941402 	0 -0.000654116 	0.00856408 	0 -0.000349139 	0.00930278 	0 -0.00033343 	0.00888421 	0 -0.000317721 	0.00846564 	0 -0.000302012 	0.00804707 	0 -0.000482718 	0.00719611 	0 -0.00025008 	0.00765747 	0 -0.000236858 	0.00725261 	0 -0.000223636 	0.00684776 	0 -0.000210414 	0.0064429 	0 -0.000334036 	0.00564982 	2.79901e-37 -0.000166715 	0.00582804 	0 -0.000155584 	0.00543891 	0 -0.000144452 	0.00504978 	0 -0.000133321 	0.00466065 	0 -0.000209238 	0.00397199 	2.83004e-40 -9.87299e-05 	0.00386442 	0 -8.90887e-05 	0.00348705 	0 -7.94474e-05 	0.00310968 	0 -6.98062e-05 	0.00273231 	0 -0.000104893 	0.00218026 	-9.14363e-38 -4.83958e-05 	0.00203174 	0 -4.24002e-05 	0.00178004 	0 -3.64047e-05 	0.00152833 	0 -3.04092e-05 	0.00127663 	0 -1.65342e-05 	0.000359152 	0 -8.01897e-06 	0.000334302 	0 -6.97361e-06 	0.000290722 	0 -5.92824e-06 	0.000247142 	0 -4.88287e-06 	0.000203561 	0 0 	0 	0
-0.0282591 	5.84952e-05 	0 -0.028471 	0.000186037 	0 -0.0285745 	0.000286696 	-8.88773e-25 -0.028552 	0.000357565 	-2.76216e-24 -0.028368 	0.000479359 	-2.27909e-23 -0.0280577 	0.000644093 	-5.80655e-23 -0.0281852 	0.000714269 	-2.86861e-22 -0.0282424 	0.000783168 	-4.28895e-22 -0.0281859 	0.000849894 	-4.36769e-22 -0.0279127 	0.00100517 	-2.99498e-22 -0.0275424 	0.0012085 	-8.58999e-23 -0.027587 	0.00122675 	-1.3856e-22 -0.0276055 	0.00125456 	-1.78956e-22 -0.0275203 	0.00131816 	-1.72924e-22 -0.0271364 	0.00152808 	-9.23853e-23 -0.0267288 	0.0017667 	9.38006e-25 -0.0266982 	0.00174119 	7.46872e-23 -0.0266645 	0.00171533 	1.48459e-22 -0.0265147 	0.00179724 	1.36081e-22 -0.0260564 	0.00206206 	5.86923e-23 -0.0256353 	0.0023326 	-1.86227e-23 -0.0255411 	0.00227373 	-1.36945e-22 -0.0254405 	0.00221388 	-2.55302e-22 -0.0251472 	0.00232896 	-2.49518e-22 -0.0246953 	0.00262052 	-1.20378e-22 -0.0242834 	0.00291975 	9.13829e-24 -0.0241398 	0.00283947 	1.35634e-22 -0.0239884 	0.00275767 	2.62089e-22 -0.0234928 	0.00291668 	2.7319e-22 -0.0230649 	0.00321324 	2.02133e-22 -0.0226826 	0.00353793 	1.19872e-22 -0.0225047 	0.00344899 	2.41321e-22 -0.0221354 	0.00350866 	2.7254e-22 -0.0216523 	0.00367577 	2.41389e-22 -0.0211962 	0.00385203 	2.09179e-22 -0.0208589 	0.00419665 	8.10907e-23 -0.0206656 	0.00416186 	7.45429e-23 -0.0202879 	0.00429808 	1.02918e-22 -0.0199276 	0.00444121 	1.31746e-22 -0.0195856 	0.00459154 	1.61048e-22 -0.0193497 	0.00470687 	1.82813e-22 -0.0192553 	0.00475928 	1.84799e-22 -0.0191628 	0.00481251 	1.86725e-22 -0.0190723 	0.00486654 	1.88591e-22 -0.0189838 	0.00492141 	1.90394e-22 -0.0188321 	0.00502315 	1.98002e-22 -0.0183512 	0.00516548 	1.79217e-22 -0.0179484 	0.00537007 	1.8342e-22 -0.0175757 	0.00558917 	1.85436e-22 -0.0171592 	0.00587875 	2.03613e-22 -0.0166074 	0.00631871 	2.58312e-22 -0.0161428 	0.00643728 	1.46352e-22 -0.0157071 	0.00657344 	3.36083e-23 -0.0151734 	0.00682355 	0 -0.0147372 	0.00723522 	3.66448e-23 -0.0143232 	0.00771982 	7.45872e-23 -0.0141874 	0.00778783 	3.19922e-23 -0.0140431 	0.0078684 	0 -0.0138649 	0.00798057 	0 -0.0136938 	0.00809777 	0 -0.0135556 	0.00820083 	0 -0.0132403 	0.0084484 	0 -0.0129475 	0.00871452 	0 -0.012678 	0.00899952 	0 -0.0123505 	0.00931637 	0 -0.011989 	0.00971455 	0 -0.011657 	0.00996489 	0 -0.0113563 	0.0102437 	0 -0.0110425 	0.0105315 	0 -0.0107484 	0.0108429 	0 -0.0105622 	0.011087 	0 -0.0103468 	0.0113479 	0 -0.0101451 	0.0116228 	0 -0.00994147 	0.0118834 	-1.4489e-23 -0.00973894 	0.0121351 	-4.03677e-23 -0.00950095 	0.0124673 	-7.28017e-23 -0.00926655 	0.0127496 	-7.77117e-23 -0.0090526 	0.0130552 	-8.34453e-23 -0.00886352 	0.0133672 	-1.08698e-22 -0.00871943 	0.013611 	-2.37729e-22 -0.00860887 	0.0138326 	-3.47794e-22 -0.00810873 	0.0144152 	-5.4411e-22 -0.00766753 	0.0150514 	-7.08855e-22 -0.00735547 	0.0155078 	-4.64565e-22 -0.0070772 	0.0160118 	-2.24278e-22 -0.00691931 	0.0166478 	7.10185e-23 -0.00684518 	0.0168096 	1.61759e-22 -0.00678373 	0.01694 	1.91104e-22 -0.00673332 	0.0170426 	1.66403e-22 -0.00668399 	0.0171469 	1.42032e-22 -0.00662833 	0.0172691 	1.14303e-22 -0.00641078 	0.0177253 	1.11686e-22 -0.00621462 	0.0182176 	1.10117e-22 -0.00603862 	0.0187435 	1.09533e-22 -0.00597031 	0.019177 	1.17291e-22 -0.00607446 	0.0193807 	1.38271e-22 -0.00554034 	0.0199772 	8.75932e-23 -0.00503806 	0.0206561 	3.78222e-23 -0.00496111 	0.0214016 	1.94708e-22 -0.00517349 	0.0217402 	3.93083e-22 -0.00536465 	0.0220399 	5.76419e-22 -0.00481795 	0.0228654 	2.61898e-22 -0.00436468 	0.0236777 	0 -0.00426813 	0.0239709 	0 -0.00438973 	0.0243234 	3.11262e-25 -0.00464616 	0.0246777 	8.1631e-25 -0.00409175 	0.0257513 	5.94249e-26 -0.00396136 	0.0261435 	0 -0.00387144 	0.0264981 	0 -0.00378632 	0.0268754 	0 -0.00393425 	0.0272568 	-1.34743e-22 -0.00366601 	0.0279148 	0 -0.00360393 	0.0281784 	0 -0.00354408 	0.028454 	0 -0.00348639 	0.028741 	0 -0.00339834 	0.0292137 	0 -0.00338109 	0.0293181 	0 -0.00336406 	0.0294238 	0 -0.00334724 	0.0295306 	0 -0.00333064 	0.0296385 	0 -0.00334766 	0.0296082 	0 -0.00322046 	0.0300399 	0 -0.0031377 	0.0304861 	0 -0.00305911 	0.0309579 	0 -0.00298452 	0.0314543 	0 -0.00308977 	0.0311692 	0 -0.00280879 	0.0317965 	0 -0.00272956 	0.032299 	0 -0.00265416 	0.0328279 	0 -0.00258421 	0.0333732 	0 -0.00282173 	0.0324294 	0 -0.00246481 	0.0332941 	0 -0.00233856 	0.0339104 	0 -0.00226595 	0.0344884 	0 -0.00230832 	0.0344906 	0 -0.00255088 	0.0333977 	0 -0.0021968 	0.034422 	0 -0.00197121 	0.0352991 	0 -0.00190196 	0.0359168 	0 -0.00204365 	0.0353495 	0 -0.00228823 	0.0341117 	0 -0.00194134 	0.035291 	0 -0.00163904 	0.036494 	7.43692e-38 -0.00157526 	0.0371416 	6.22712e-37 -0.00180215 	0.0360024 	1.17255e-36 -0.00204724 	0.0346266 	1.71546e-36 -0.00171107 	0.0359529 	1.10814e-36 -0.00138259 	0.0374135 	5.07059e-37 -0.00134165 	0.0378743 	7.64292e-40 -0.00159489 	0.0364666 	1.63302e-39 -0.00184163 	0.0349598 	2.49089e-39 -0.00151843 	0.0364236 	1.54388e-39 -0.00120238 	0.038027 	6.06266e-40 -0.0011765 	0.0382838 	-3.68809e-37 -0.00143636 	0.0367591 	-9.24241e-37 -0.00168991 	0.0351257 	-1.47311e-36 -0.00138032 	0.0367194 	-8.73051e-37 -0.0010775 	0.0384575 	-2.78743e-37 -0.0010681 	0.0385399 	0 -0.00134617 	0.0369 	0 -0.00161756 	0.0351362 	0 -0.00132054 	0.0368595 	0 -0.0010303 	0.0387334 	0 -0.00103298 	0.0386427 	0 -0.00134954 	0.0368771 	0 -0.00165796 	0.0349612 	0 -0.00137155 	0.0368315 	0 -0.00109262 	0.0388627 	0 -0.00109004 	0.0385467 	0 -0.00147688 	0.0366201 	0 -0.0018518 	0.0344953 	0 -0.00157559 	0.0365668 	0 -0.00132144 	0.0386538 	0 -0.00129819 	0.0379739 	0 -0.00175128 	0.0359147 	0 -0.00223257 	0.0334586 	0 -0.0019737 	0.0358625 	0 -0.00178116 	0.0374151 	0 -0.00173142 	0.0363701 	0 -0.0021388 	0.0342341 	0 -0.00276988 	0.0312069 	0 -0.00255594 	0.0342332 	0 -0.002401 	0.0345817 	0 -0.00228047 	0.0328458 	0 -0.00241722 	0.0305501 	0 -0.00322319 	0.0265325 	0 -0.00312659 	0.0307977 	0 -0.00283231 	0.0280925 	0 -0.00252917 	0.0250857 	0 -0.00222602 	0.0220789 	0 -0.00278335 	0.0169667 	0 -0.00268119 	0.0192933 	0 -0.00211124 	0.0151921 	0 -0.0015413 	0.0110909 	0 -0.000971358 	0.0069897 	0 0 	0 	0
-0.0410401 	8.08355e-05 	0 -0.0410075 	0.000280436 	-2.57764e-23 -0.0409247 	0.000500479 	-5.88543e-23 -0.0408614 	0.000721042 	-9.21075e-23 -0.0408177 	0.000942122 	-1.25536e-22 -0.0407518 	0.00115491 	-1.59451e-22 -0.0406075 	0.00133982 	-2.00113e-22 -0.0404275 	0.00154633 	-2.06336e-22 -0.0402661 	0.00175432 	-2.11587e-22 -0.0401236 	0.00196378 	-2.15855e-22 -0.040092 	0.00201776 	-2.16693e-22 -0.0400757 	0.00204948 	-2.17944e-22 -0.0400598 	0.00208125 	-2.19186e-22 -0.0400444 	0.00211305 	-2.20418e-22 -0.0400294 	0.00214488 	-2.21641e-22 -0.0400035 	0.00218227 	-2.24127e-22 -0.039738 	0.00237848 	-1.87626e-22 -0.0394863 	0.00257603 	-1.51306e-22 -0.0392538 	0.00277612 	-1.1469e-22 -0.039041 	0.0029788 	-7.7772e-23 -0.0387364 	0.00324203 	-4.65887e-23 -0.0384365 	0.0034267 	-7.53758e-23 -0.0381272 	0.00361925 	-6.83251e-23 -0.0378372 	0.00381532 	-6.16147e-23 -0.037567 	0.00401499 	-5.52526e-23 -0.0370613 	0.00435945 	3.79878e-23 -0.0367172 	0.00450555 	1.20679e-22 -0.0363723 	0.00469954 	1.49545e-22 -0.0360474 	0.00489819 	1.79102e-22 -0.0356435 	0.00516016 	1.72366e-22 -0.0350294 	0.00556865 	7.92504e-23 -0.034631 	0.00569402 	4.71496e-23 -0.0342545 	0.00584064 	2.46065e-23 -0.0339178 	0.00604975 	3.52601e-23 -0.0332887 	0.00646241 	6.32749e-23 -0.0326879 	0.00689774 	9.12767e-23 -0.032266 	0.00702231 	4.9443e-23 -0.0318609 	0.0071533 	7.4376e-24 -0.0312275 	0.00745525 	0 -0.0306392 	0.00789646 	1.4199e-23 -0.0300834 	0.00836642 	2.85335e-23 -0.029669 	0.00850855 	4.09736e-24 -0.0290484 	0.00881848 	0 -0.0284174 	0.00917857 	0 -0.0278266 	0.00955946 	0 -0.0273261 	0.00992668 	0 -0.0273131 	0.00993831 	0 -0.0273001 	0.00994995 	0 -0.0272871 	0.00996161 	0 -0.0272718 	0.00997452 	0 -0.0272519 	0.00998992 	0 -0.0266184 	0.0103649 	0 -0.0260319 	0.010771 	0 -0.0254879 	0.0112037 	0 -0.0248898 	0.0117115 	0 -0.0241443 	0.0123719 	0 -0.0235368 	0.0127481 	0 -0.0229558 	0.0131665 	0 -0.0222484 	0.013688 	0 -0.0216044 	0.0142553 	0 -0.0209724 	0.0149265 	0 -0.0209657 	0.0149356 	0 -0.0209589 	0.0149447 	0 -0.020952 	0.0149539 	0 -0.0209429 	0.0149632 	0 -0.0209337 	0.0149726 	0 -0.0201982 	0.0155674 	0 -0.0195353 	0.016228 	0 -0.0189214 	0.0169435 	7.18032e-25 -0.0182455 	0.0176758 	6.6549e-24 -0.0174509 	0.0187251 	1.44956e-23 -0.0173702 	0.0188336 	1.4531e-23 -0.0172911 	0.0189437 	1.45717e-23 -0.0172091 	0.019047 	1.03597e-23 -0.0171223 	0.01914 	6.61679e-26 -0.0170409 	0.0192301 	-9.74027e-24 -0.0162883 	0.0200365 	1.44667e-23 -0.0156128 	0.0209305 	4.24124e-23 -0.0149845 	0.0217594 	-1.81646e-23 -0.0144578 	0.0226082 	-1.53013e-22 -0.0141102 	0.0233927 	-2.84156e-22 -0.0140084 	0.0236036 	-3.68579e-22 -0.0139088 	0.0238108 	-4.34218e-22 -0.0138091 	0.0239717 	-3.56073e-22 -0.0137114 	0.024135 	-2.78518e-22 -0.0136046 	0.0243201 	-1.92492e-22 -0.0131956 	0.0249859 	1.02899e-22 -0.0128241 	0.0256985 	3.89622e-22 -0.0124884 	0.0264554 	6.67918e-22 -0.0122688 	0.0270011 	4.77439e-22 -0.0121159 	0.027443 	1.82314e-22 -0.0115041 	0.0284518 	-4.57305e-23 -0.010943 	0.0295392 	-2.76971e-22 -0.0105821 	0.0302163 	7.91451e-23 -0.0103846 	0.0309453 	8.41213e-22 -0.0102993 	0.031649 	1.74041e-21 -0.00995185 	0.0324955 	2.41866e-21 -0.00971646 	0.0330686 	2.16126e-21 -0.00952075 	0.0335735 	1.63559e-21 -0.00933513 	0.0340972 	1.12121e-21 -0.00907519 	0.0348978 	3.77138e-22 -0.00900309 	0.0351462 	2.828e-22 -0.00893275 	0.0353981 	1.88665e-22 -0.00886414 	0.0356533 	9.47323e-23 -0.00879954 	0.0359077 	2.80474e-24 -0.00885371 	0.0359514 	2.94649e-24 -0.00839966 	0.0368236 	-1.01023e-22 -0.00814659 	0.0377547 	-3.12486e-22 -0.00791414 	0.0387299 	-5.27866e-22 -0.00780739 	0.0395313 	-7.46685e-22 -0.00803866 	0.0396796 	-9.605e-22 -0.00740083 	0.0407739 	-6.33607e-22 -0.0068609 	0.04194 	-1.17666e-22 -0.00667862 	0.0430738 	1.2613e-21 -0.00696565 	0.043235 	2.34141e-21 -0.00723644 	0.043363 	3.38465e-21 -0.0065924 	0.0446761 	1.90525e-21 -0.00597402 	0.0460871 	4.46016e-22 -0.00582724 	0.0467152 	7.37798e-25 -0.00614528 	0.0468459 	3.52817e-24 -0.00644752 	0.0469382 	6.2417e-24 -0.00580166 	0.0484658 	2.63748e-24 -0.00531183 	0.0497502 	0 -0.00521242 	0.050129 	0 -0.0053595 	0.0503325 	-3.04671e-21 -0.00568387 	0.0503709 	-8.32488e-21 -0.00504109 	0.0521024 	-1.68542e-21 -0.004806 	0.0528432 	0 -0.00470998 	0.0532495 	0 -0.00462219 	0.0536692 	-1.37003e-25 -0.00496005 	0.0536347 	-1.04407e-23 -0.0044094 	0.0552981 	0 -0.00431547 	0.0557048 	0 -0.00422382 	0.0561315 	0 -0.0041344 	0.0565778 	0 -0.00428887 	0.0566912 	2.44903e-21 -0.00394072 	0.0578842 	3.17385e-37 -0.00385391 	0.0583048 	9.30174e-37 -0.00376905 	0.0587447 	1.54191e-36 -0.00368609 	0.0592035 	2.1526e-36 -0.00368919 	0.0595275 	2.86709e-36 -0.00355233 	0.0600869 	3.12044e-36 -0.00350689 	0.0603403 	2.63457e-36 -0.00346203 	0.0606001 	2.15108e-36 -0.00341772 	0.0608662 	1.66994e-36 -0.00336049 	0.0612226 	1.04349e-36 -0.00333438 	0.0613929 	8.24252e-37 -0.00330848 	0.0615654 	6.05125e-37 -0.00328277 	0.0617401 	3.8611e-37 -0.00325726 	0.061917 	1.67207e-37 -0.0032608 	0.0618999 	4.41037e-39 -0.00317537 	0.0624257 	-4.83057e-37 -0.00311894 	0.0628649 	-1.02745e-36 -0.00306369 	0.0633184 	-1.57259e-36 -0.0030096 	0.0637862 	-2.11847e-36 -0.00305646 	0.0635303 	-2.66436e-36 -0.00292648 	0.0643778 	-2.06429e-36 -0.00290171 	0.0648316 	-1.46567e-36 -0.00287762 	0.0652942 	-8.67437e-37 -0.00285417 	0.0657653 	-2.69575e-37 -0.00299041 	0.064957 	0 -0.00282182 	0.066167 	0 -0.00284903 	0.0666535 	0 -0.00287614 	0.0671386 	0 -0.00290316 	0.0676225 	0 -0.00313994 	0.0662117 	0 -0.00292086 	0.0678456 	0 -0.00303219 	0.0683995 	0 -0.00314204 	0.0689351 	0 -0.00325043 	0.0694528 	0 -0.00361252 	0.0672939 	0 -0.00333631 	0.0693655 	0 -0.00354308 	0.070148 	0 -0.00378432 	0.0707834 	0 -0.00407191 	0.0707102 	0 -0.00454328 	0.0680883 	0 -0.00428442 	0.0704923 	0 -0.00447435 	0.0719521 	0 -0.00491951 	0.0727728 	0 -0.00544924 	0.0715544 	0 -0.00605731 	0.0682447 	0 -0.00584337 	0.0712711 	0 -0.00586402 	0.0739514 	0 -0.00661392 	0.0751105 	0 -0.0073912 	0.071524 	0 -0.00813263 	0.0669457 	0 -0.00803603 	0.0712109 	0 -0.00796319 	0.0756768 	0 -0.00862944 	0.0755074 	0 -0.00947089 	0.0691589 	0 -0.0102107 	0.0622423 	0 -0.0103844 	0.0690451 	0 -0.0106179 	0.0762237 	0 -0.00992136 	0.0713921 	0 -0.0102654 	0.0616359 	0 -0.0105535 	0.0505975 	0 -0.0112479 	0.0628134 	0 -0.0104864 	0.0610024 	0 -0.00898285 	0.052256 	0 -0.00747934 	0.0435096 	0 -0.00616342 	0.0267918 	0 -0.0067585 	0.0396379 	0 -0.00549176 	0.0322086 	0 -0.00422503 	0.0247793 	0 -0.00295829 	0.0173501 	0 0 	0 	0