# vtk DataFile Version 2.0
track0
ASCII
DATASET POLYDATA
POINTS 41154 float
0.05 8.57988e-20 2.57396e-18
0.05 0.00217391 -1.05592e-17
0.05 0.00217391 -1.05592e-17
0.05 0.00217391 -1.05592e-17
0.05 0.00217391 -1.05592e-17
0.05 0.00217391 -1.05592e-17
0.05 0.00217391 -1.38778e-17
0.0493333 0.00217502 -8.74301e-18
0.0486667 0.00217719 -4.71845e-18
0.048 0.00218093 -7.85187e-18
0.0473334 0.00218785 -4.33739e-18
0.0466667 0.00219733 -1.38778e-17
0.046 0.00220923 -1.42941e-17
0.0453333 0.00222059 -1.44329e-17
0.0446667 0.00223257 -1.40109e-17
0.0440001 0.00224757 -1.69471e-17
0.0433333 0.00226605 -2.498e-17
0.0426667 0.00228836 -1.56819e-17
0.0419999 0.00230873 -1.06169e-17
0.0413332 0.00232936 -1.50302e-17
0.0406666 0.00235295 -1.57146e-17
0.04 0.00238053 -2.498e-17
0.0393333 0.00241325 -1.98452e-17
0.0386665 0.00244284 -2.58818e-17
0.0379997 0.00247318 -2.31516e-17
0.0373331 0.00250653 -2.08819e-17
0.0366667 0.00254375 -1.80411e-17
0.036 0.00258732 -1.56819e-17
0.0353331 0.00262682 -1.54712e-17
0.0346663 0.0026686 -1.55275e-17
0.0339997 0.00271358 -2.00905e-17
0.0333333 0.00276188 -1.80411e-17
0.0326667 0.00281732 -1.83187e-17
0.0319998 0.00286969 -1.58203e-17
0.0313331 0.00292547 -2.20514e-17
0.0306668 0.00298483 -2.02866e-17
0.03 0.00304797 -1.80411e-17
0.0294499 0.00310504 -1.85128e-17
0.0288998 0.00316182 -1.75967e-17
0.0283499 0.00322128 -2.24489e-17
0.0278004 0.00328351 -1.34605e-17
0.0273799 0.00333333 -1.27899e-17
0.0272373 0.00335083 -8.28904e-18
0.0270947 0.00336854 -4.48199e-18
0.0269521 0.00338645 -1.17771e-17
0.0268095 0.00340457 -1.35211e-17
0.0266667 0.00342293 -5.3273e-18
0.026 0.00351158 -1.0657e-17
0.0253338 0.00360343 -4.8764e-18
0.0246682 0.00370011 -7.77415e-18
0.0240034 0.0038018 -5.27925e-18
0.0233333 0.00390968 3.20353e-18
0.0226667 0.00403605 -3.25193e-18
0.0219994 0.0041592 -6.92645e-18
0.0213331 0.00428765 -6.03476e-18
0.0206681 0.00442222 6.83507e-19
0.02 0.00457402 1.15422e-17
0.0193333 0.0047531 9.5794e-18
0.0186665 0.00493154 3.80654e-18
0.0179995 0.00510929 2.78836e-18
0.0173359 0.00529967 1.44247e-18
0.0166667 0.00552121 0
0.0160624 0.0057503 -5.42948e-18
0.015459 0.00598161 -1.28199e-18
0.0148598 0.00622368 1.45669e-18
0.0142677 0.00648235 -6.03684e-18
0.0138777 0.00666667 -7.84548e-18
0.0137688 0.00672093 -6.27638e-18
0.0136603 0.00677594 -1.58101e-17
0.0135522 0.00683171 -1.56301e-17
0.0134445 0.00688825 -1.95053e-17
0.0133333 0.00694793 -2.54484e-17
0.0126667 0.00731497 -2.60597e-17
0.0120123 0.00770357 -2.04618e-17
0.0113733 0.00811678 -2.24832e-17
0.0107514 0.00855551 -2.16495e-17
0.01 0.00914597 -1.249e-17
0.00980943 0.00931678 -1.47895e-17
0.0096205 0.0094894 -1.43176e-17
0.00943324 0.00966383 -1.94569e-17
0.00924771 0.00984009 -1.92265e-17
0.00908269 0.01 -1.94289e-17
0.00859949 0.0104767 -2.5177e-17
0.00813939 0.0109757 -2.94544e-17
0.00770387 0.0114964 -2.90726e-17
0.007292 0.0120359 -3.01052e-17
0.00666667 0.0129268 -3.19189e-17
0.00661666 0.0130081 -3.339e-17
0.00656697 0.0130896 -2.93094e-17
0.00651757 0.0131713 -3.21672e-17
0.00646848 0.0132531 -3.15889e-17
0.00642053 0.0133333 -3.19189e-17
0.00602296 0.014 -3.71925e-17
0.00566176 0.014687 -3.69489e-17
0.00533124 0.0153894 -3.80304e-17
0.00502746 0.0161037 -4.03505e-17
0.00479054 0.0166667 -4.18096e-17
0.0045121 0.0173333 -4.00766e-17
0.00427316 0.0180152 -4.17134e-17
0.00406029 0.0187056 -3.56382e-17
0.00385826 0.0193992 -3.28548e-17
0.00369294 0.02 -3.55121e-17
0.00362102 0.0202584 -3.34057e-17
0.00355478 0.0205183 -3.76696e-17
0.00349039 0.0207787 -4.8231e-17
0.00342746 0.0210394 -4.42225e-17
0.00333333 0.0214389 -4.49081e-17
0.00324729 0.0218177 -4.594e-17
0.00316388 0.0221972 -4.19156e-17
0.00308302 0.0225773 -4.06624e-17
0.00300463 0.0229578 -3.80174e-17
0.00292969 0.0233333 -4.30211e-17
0.00279219 0.024 -4.34375e-17
0.00267018 0.0246697 -4.83691e-17
0.0025559 0.0253407 -4.87119e-17
0.00244873 0.0260129 -4.4537e-17
0.00234585 0.0266667 -4.16334e-17
0.00222977 0.0273333 -4.27436e-17
0.00213256 0.028003 -4.17646e-17
0.002051 0.0286748 -3.82178e-17
0.00197515 0.0293472 -4.11063e-17
0.00189022 0.03 -4.30211e-17
0.00179077 0.0306667 -3.85803e-17
0.00171139 0.031336 -3.65724e-17
0.00165108 0.0320074 -4.00511e-17
0.00159286 0.0326789 -4.21523e-17
0.00152247 0.0333333 -4.57436e-17
0.00143644 0.034 -4.47105e-17
0.00137187 0.0346691 -4.52797e-17
0.00132707 0.0353398 -4.60605e-17
0.00128319 0.0360105 -4.54463e-17
0.00122528 0.0366667 -4.9225e-17
0.00115044 0.0373333 -5.18759e-17
0.00109862 0.0380022 -4.73104e-17
0.00106079 0.038672 -5.22587e-17
0.00102295 0.0393418 -5.31691e-17
0.000976194 0.04 -5.92185e-17
0.000910915 0.0406667 -5.49465e-17
0.000870568 0.0413353 -5.50842e-17
0.000837888 0.0420044 -5.64205e-17
0.000805208 0.0426734 -5.82182e-17
0.000768755 0.0433333 -6.16486e-17
0.00071181 0.044 -6.08599e-17
0.000682057 0.0446684 -6.13625e-17
0.000653856 0.0453369 -5.64192e-17
0.000625655 0.0460054 -5.30222e-17
0.00059776 0.0466667 -4.81799e-17
0.000548138 0.0473333 -5.38392e-17
0.000523852 0.0480014 -5.69363e-17
0.000499566 0.0486695 -6.23159e-17
0.000475279 0.0493375 -5.92652e-17
0.000451197 0.05 -5.62625e-17
0.000407992 0.0506667 -6.06315e-17
0.000387094 0.0513344 -5.94847e-17
0.000366195 0.0520021 -6.16209e-17
0.000345296 0.0526699 -5.51002e-17
0.000324531 0.0533333 -5.88272e-17
0.000286835 0.054 -5.76542e-17
0.000268761 0.0546675 -5.9288e-17
0.000250688 0.055335 -5.71098e-17
0.000232614 0.0560025 -5.92623e-17
0.00021463 0.0566667 -4.89297e-17
0.000181423 0.0573333 -3.90905e-17
0.0001655 0.0580006 -4.52386e-17
0.000149577 0.0586679 -4.11498e-17
0.000133655 0.0593352 -3.70569e-17
0.000117793 0.06 -3.48906e-17
9.42344e-05 0.0605239 -3.88362e-17
8.27092e-05 0.0610482 -3.86378e-17
7.11839e-05 0.0615725 -3.49699e-17
5.96587e-05 0.0620967 -3.54107e-17
3.24751e-05 0.0633333 -4.16874e-17
2.59801e-05 0.0634856 -3.88209e-17
2.2625e-05 0.0636381 -3.94288e-17
1.92698e-05 0.0637905 -4.09042e-17
1.59147e-05 0.0639429 -3.57875e-17
0 0.0646658 -3.94143e-17
0.05 0.00434783 5.94331e-18
0.0493333 0.00434873 5.94181e-18
0.0486667 0.00435271 4.54741e-18
0.048 0.00435907 6.4531e-18
0.0473334 0.00436711 1.06726e-17
0.0466667 0.00437806 1.35258e-17
0.046 0.00439302 1.07253e-17
0.0453334 0.00440964 1.00037e-17
0.0446668 0.00442791 5.76009e-18
0.0440003 0.00444781 4.81896e-18
0.0433333 0.00447161 -5.03596e-20
0.0426667 0.00450062 -1.24488e-18
0.042 0.00453008 4.84946e-18
0.0413334 0.00456026 4.71833e-18
0.0406669 0.00459207 -3.10655e-18
0.04 0.00462949 -5.28103e-18
0.0393333 0.0046734 -3.27249e-18
0.0386666 0.00471677 -6.46722e-18
0.0379999 0.0047596 -5.65638e-18
0.0373333 0.00480471 -6.29262e-18
0.0366667 0.0048574 -1.87109e-18
0.036 0.00491798 -6.46628e-18
0.0353332 0.00497729 -9.31404e-18
0.0346663 0.00503531 -1.15176e-17
0.0339998 0.00509702 -6.20586e-18
0.0333333 0.00516772 -6.93889e-18
0.0326667 0.00524786 -5.27356e-18
0.0319998 0.0053263 -7.77106e-18
0.0313327 0.00540301 -9.80026e-18
0.0306664 0.00548574 -5.66614e-18
0.03 0.00557861 -1.38778e-17
0.0293333 0.00568262 -9.4369e-18
0.0286664 0.00578487 -1.20038e-17
0.028 0.00589051 -1.29499e-17
0.0273348 0.00600346 -1.35877e-17
0.0266667 0.00612492 -1.11022e-17
0.0261284 0.00623327 -1.85325e-17
0.0255901 0.00634173 -1.97178e-17
0.025053 0.00645563 -2.30733e-17
0.0245171 0.00657522 -2.17732e-17
0.0241277 0.00666667 -2.35273e-17
0.0239688 0.00670538 -2.39566e-17
0.0238101 0.00674467 -1.46717e-17
0.0236515 0.00678455 -1.44076e-17
0.0234931 0.00682501 -1.13682e-17
0.0233333 0.00686643 -1.83738e-17
0.0226667 0.00704423 -1.45066e-17
0.0220025 0.00723118 -2.45323e-17
0.0213415 0.00742893 -2.44045e-17
0.020684 0.007638 -3.31751e-17
0.02 0.00787221 -3.37647e-17
0.0193333 0.00812574 -3.66008e-17
0.0186708 0.00838978 -3.55203e-17
0.0180127 0.00866495 -3.65735e-17
0.0173621 0.00895721 -3.36518e-17
0.0166667 0.00929823 -3.60822e-17
0.0164059 0.00943859 -3.51288e-17
0.0161462 0.00958094 -2.5501e-17
0.0158877 0.00972556 -2.16011e-17
0.0156309 0.00987317 -1.8398e-17
0.0154162 0.01 -1.80411e-17
0.0149996 0.0102518 -1.74812e-17
0.0145891 0.0105133 -1.94386e-17
0.0141851 0.0107847 -2.57046e-17
0.0137878 0.011066 -3.15944e-17
0.0133333 0.0114078 -3.49573e-17
0.0128564 0.0117929 -3.13254e-17
0.0123897 0.0121905 -2.86331e-17
0.0119338 0.0126003 -3.58333e-17
0.0114895 0.0130227 -3.55068e-17
0.0111807 0.0133333 -3.26147e-17
0.0109446 0.0135806 -2.81734e-17
0.0107138 0.0138328 -2.37857e-17
0.0104884 0.0140899 -2.31458e-17
0.0102684 0.0143515 -2.02619e-17
0.01 0.0146841 -1.66192e-17
0.0096958 0.0150806 -2.40988e-17
0.00940083 0.015484 -2.73656e-17
0.00911506 0.015894 -2.42002e-17
0.008838 0.01631 -2.37388e-17
0.00860862 0.0166667 -3.19189e-17
0.00822023 0.0172887 -3.6278e-17
0.00785944 0.017927 -3.58174e-17
0.00752501 0.0185796 -3.02628e-17
0.00720908 0.0192414 -2.54873e-17
0.00687135 0.02 -2.16931e-17
0.00683042 0.0200985 -1.90199e-17
0.0067901 0.0201972 -1.94796e-17
0.00675028 0.0202961 -2.98304e-17
0.00671086 0.0203952 -2.8212e-17
0.00666667 0.0205076 -3.20388e-17
0.0064474 0.0210727 -2.29943e-17
0.00623974 0.0216422 -2.30244e-17
0.00604305 0.0222156 -2.18552e-17
0.00585666 0.0227925 -2.29372e-17
0.00568794 0.0233333 -2.498e-17
0.00547858 0.024 -1.98452e-17
0.0052917 0.0246733 -1.64562e-17
0.00512619 0.0253522 -1.72972e-17
0.00496857 0.026033 -2.12305e-17
0.00481797 0.0266667 -2.50878e-17
0.00465597 0.0273333 -2.41047e-17
0.00451496 0.0280048 -2.4546e-17
0.00439057 0.0286795 -2.03523e-17
0.00427038 0.0293549 -2.13713e-17
0.00415467 0.03 -2.56539e-17
0.00402993 0.0306667 -2.6834e-17
0.00392439 0.0313366 -2.72078e-17
0.00382316 0.0320073 -2.27717e-17
0.00372555 0.0326785 -2.18078e-17
0.00363381 0.0333333 -3.10315e-17
0.00357371 0.0337546 -2.45054e-17
0.00351857 0.0341765 -2.73539e-17
0.00346477 0.0345985 -3.28064e-17
0.00341228 0.0350208 -2.55133e-17
0.00333333 0.0356719 -1.80411e-17
0.00331013 0.0358708 -1.39164e-17
0.00328718 0.0360698 -1.39546e-17
0.00326449 0.0362688 -1.39924e-17
0.00324206 0.0364679 -1.68053e-17
0.00321992 0.0366667 -6.93889e-18
0.00314507 0.0373333 -7.35523e-18
[...]
POINT_DATA 41154
 FIELD attributes 1
U 3 41154 float
-6.44957e-19 	-1.70103e-21 	0
-0.0152317 	2.53811e-05 	0 -0.0152317 	2.53811e-05 	0 -0.0152317 	2.53811e-05 	0 -0.0152317 	2.53811e-05 	0 -0.0152317 	2.53811e-05 	0 -0.0152317 	2.53811e-05 	0 -0.0155653 	5.05219e-05 	0 -0.0158027 	8.87838e-05 	-3.9297e-25 -0.0157629 	0.000163554 	-1.87982e-24 -0.0155096 	0.000220547 	-3.37365e-24 -0.0151854 	0.000271043 	-4.87335e-24 -0.0155101 	0.000264227 	1.90906e-22 -0.0156927 	0.000281959 	3.21799e-22 -0.0155923 	0.000350875 	3.17949e-22 -0.0153586 	0.000425701 	1.90127e-22 -0.0150633 	0.000504204 	-6.0438e-24 -0.0153653 	0.000469362 	3.49659e-23 -0.0154564 	0.000478343 	5.57128e-23 -0.0153065 	0.000541644 	5.1606e-23 -0.0151022 	0.000624754 	2.79672e-23 -0.0148468 	0.00072874 	-1.59793e-23 -0.0151153 	0.000670754 	-1.1724e-23 -0.0150853 	0.000686499 	-2.87403e-23 -0.0148999 	0.000745334 	-5.7978e-23 -0.014716 	0.000821943 	-8.84508e-23 -0.0145086 	0.000948205 	-1.22275e-22 -0.0147357 	0.000872584 	-9.23234e-23 -0.0145652 	0.000912714 	-8.73606e-23 -0.014359 	0.000968962 	-8.57893e-23 -0.0141694 	0.00102699 	-8.45019e-23 -0.014015 	0.00116561 	-1.10978e-22 -0.0141132 	0.00110809 	-1.94037e-22 -0.0138849 	0.00116194 	-1.55808e-22 -0.0136723 	0.0012179 	-1.16998e-22 -0.013476 	0.00127606 	-7.75855e-23 -0.0133397 	0.001384 	1.08477e-23 -0.0132928 	0.00137203 	-4.68917e-23 -0.0131075 	0.00141735 	-3.33931e-23 -0.0129328 	0.00146443 	-1.92162e-23 -0.0127692 	0.00151331 	-4.33675e-24 -0.0126526 	0.00155217 	7.60979e-24 -0.0126158 	0.00156605 	1.18924e-23 -0.0125799 	0.00158006 	1.62279e-23 -0.0125448 	0.00159422 	2.06167e-23 -0.0125105 	0.00160851 	2.50591e-23 -0.0124398 	0.00165411 	9.2289e-24 -0.012201 	0.00168223 	6.84632e-24 -0.0119973 	0.00174271 	7.76608e-24 -0.0118098 	0.0018065 	8.65497e-24 -0.011639 	0.00187371 	9.51164e-24 -0.0112812 	0.00213851 	5.15572e-23 -0.0109302 	0.00201715 	3.81739e-22 -0.0107414 	0.00207081 	4.68607e-22 -0.0105791 	0.0021407 	5.41088e-22 -0.0103154 	0.00234394 	4.40384e-22 -0.00998154 	0.00268115 	1.81689e-22 -0.00967389 	0.00258869 	4.48311e-22 -0.00936463 	0.00249555 	7.14915e-22 -0.00905138 	0.00259701 	7.2909e-22 -0.00878402 	0.00290753 	4.9475e-22 -0.00856377 	0.00324683 	2.6159e-22 -0.00833986 	0.00319707 	4.65967e-22 -0.0080577 	0.00325534 	5.01747e-22 -0.00775952 	0.00338934 	4.34648e-22 -0.00749502 	0.00354287 	3.6418e-22 -0.00734263 	0.00365917 	3.14788e-22 -0.00729488 	0.00369895 	3.00811e-22 -0.0072486 	0.0037397 	2.86687e-22 -0.00720381 	0.00378142 	2.72417e-22 -0.00714552 	0.00383508 	2.70793e-22 -0.00707943 	0.00389766 	2.75442e-22 -0.0066748 	0.00396405 	1.82846e-22 -0.00640768 	0.00414304 	9.87593e-23 -0.00617032 	0.00435329 	1.92595e-23 -0.00590073 	0.00463685 	2.61753e-23 -0.00562263 	0.00503949 	3.22536e-23 -0.00556091 	0.00508094 	1.86057e-23 -0.00550232 	0.00512531 	4.95132e-24 -0.00544595 	0.00517366 	3.02937e-23 -0.00539227 	0.0052256 	7.78258e-23 -0.005347 	0.00527494 	1.20514e-22 -0.00503968 	0.00546604 	1.21369e-22 -0.00476534 	0.00569669 	1.16255e-22 -0.00453102 	0.00593534 	1.05126e-22 -0.00433506 	0.00617614 	8.84655e-23 -0.00406753 	0.00661421 	5.37505e-23 -0.00405073 	0.00664237 	8.90565e-23 -0.00403432 	0.00667104 	1.24058e-22 -0.00401828 	0.00670023 	1.58758e-22 -0.00401857 	0.00672177 	8.4668e-23 -0.00402069 	0.00674217 	4.01628e-25 -0.00363396 	0.00691222 	-6.803e-22 -0.00342147 	0.00727039 	-1.12477e-21 -0.00326895 	0.00768651 	-1.50547e-21 -0.00335943 	0.00798295 	-1.19326e-21 -0.00343362 	0.008221 	-9.46814e-22 -0.00300707 	0.00858106 	-6.22404e-22 -0.00274195 	0.00889264 	-3.65332e-22 -0.00264887 	0.00909493 	-1.98391e-22 -0.00256548 	0.00932295 	-2.65177e-23 -0.00269522 	0.00968301 	1.78783e-23 -0.00252966 	0.00992631 	1.4565e-24 -0.0024813 	0.0100336 	0 -0.00244569 	0.0101319 	0 -0.00241162 	0.0102349 	0 -0.00236178 	0.0103997 	0 -0.00231891 	0.0105507 	0 -0.00227879 	0.0107108 	0 -0.00224131 	0.0108796 	0 -0.00220637 	0.0110567 	0 -0.00226966 	0.0110041 	0 -0.00202226 	0.0110997 	0 -0.00194931 	0.0114458 	0 -0.00188547 	0.0118262 	0 -0.00189561 	0.0120456 	0 -0.00205822 	0.0118212 	0 -0.00173777 	0.0119719 	0 -0.00148915 	0.0122646 	0 -0.0014422 	0.0127852 	0 -0.001634 	0.012559 	0 -0.00182295 	0.0122205 	0 -0.0014825 	0.0125017 	0 -0.00116042 	0.0129164 	0 -0.00112843 	0.0130146 	0 -0.00136103 	0.0126544 	0 -0.00157362 	0.0121942 	0 -0.00121792 	0.0126217 	0 -0.000883435 	0.0132252 	0 -0.000840688 	0.0128518 	0 -0.00109462 	0.0124022 	0 -0.00132677 	0.0118177 	0 -0.000960902 	0.0124035 	0 -0.000720248 	0.012751 	0 -0.000695445 	0.0123118 	0 -0.00083655 	0.011776 	0 -0.00108406 	0.0110711 	0 -0.000713398 	0.0118224 	0 -0.000577397 	0.0118211 	0 -0.000555722 	0.0113773 	0 -0.000599841 	0.0108591 	0 -0.000857984 	0.0100445 	0 -0.000488027 	0.010964 	0 -0.000447747 	0.0106137 	0 -0.000429234 	0.0101748 	0 -0.000410721 	0.00973599 	0 -0.000657948 	0.00883949 	0 -0.00034903 	0.00960118 	0 -0.000333565 	0.00917578 	0 -0.000318101 	0.00875039 	0 -0.000302637 	0.00832499 	0 -0.000481801 	0.0074344 	0 -0.000247854 	0.00791912 	0 -0.000235158 	0.00751347 	0 -0.000222462 	0.00710782 	0 -0.000209766 	0.00670218 	0 -0.000332345 	0.00587762 	2.90488e-37 -0.000164818 	0.00608703 	0 -0.000154433 	0.00570349 	0 -0.000144047 	0.00531995 	0 -0.000133662 	0.0049364 	0 -0.000210374 	0.00422347 	2.93085e-40 -9.93345e-05 	0.00416303 	0 -9.06164e-05 	0.00379766 	0 -8.18982e-05 	0.00343229 	0 -7.31801e-05 	0.00306692 	0 -0.000112204 	0.00249514 	-1.05276e-37 -5.09792e-05 	0.00231906 	0 -4.47442e-05 	0.00203543 	0 -3.85093e-05 	0.0017518 	0 -3.22743e-05 	0.00146817 	0 -3.13729e-05 	0.00073571 	0 -1.50275e-05 	0.000682655 	0 -1.30868e-05 	0.000594495 	0 -1.11462e-05 	0.000506336 	0 -9.20547e-06 	0.000418176 	0 0 	0 	0
-0.0296243 	4.02445e-05 	0 -0.0298457 	0.000177986 	0 -0.0299544 	0.000285925 	-6.96289e-25 -0.0299326 	0.000360985 	-2.16068e-24 -0.0297455 	0.000488416 	-1.78082e-23 -0.0294282 	0.000660341 	-4.54587e-23 -0.0295601 	0.000737267 	-2.24911e-22 -0.0296189 	0.000811789 	-3.35565e-22 -0.029561 	0.00088244 	-3.41425e-22 -0.0292813 	0.00104477 	-2.31171e-22 -0.0289004 	0.0012577 	-5.87506e-23 -0.0289442 	0.00127934 	-6.89502e-23 -0.0289607 	0.00131086 	-7.78929e-23 -0.0288723 	0.00137814 	-8.21934e-23 -0.0284778 	0.00159764 	-5.57918e-23 -0.0280575 	0.00184809 	-2.38418e-23 -0.028021 	0.00182294 	-4.75911e-23 -0.0279814 	0.00179744 	-7.13409e-23 -0.027827 	0.0018833 	-9.44056e-23 -0.027353 	0.0021617 	-9.1026e-23 -0.0269183 	0.0024461 	-8.7284e-23 -0.026814 	0.00238509 	-2.75163e-22 -0.026703 	0.00232306 	-4.63136e-22 -0.0263983 	0.00244419 	-4.47599e-22 -0.0259309 	0.00275103 	-2.28842e-22 -0.0255057 	0.00306595 	-9.51926e-24 -0.0253488 	0.00298173 	1.52666e-22 -0.0251838 	0.00289593 	3.14784e-22 -0.0246664 	0.00306229 	3.27956e-22 -0.0242237 	0.00337587 	2.40441e-22 -0.0238297 	0.00371787 	1.40282e-22 -0.0236366 	0.003624 	2.78986e-22 -0.0232484 	0.00368534 	3.15102e-22 -0.0227417 	0.00386146 	2.78626e-22 -0.0222636 	0.00404723 	2.40943e-22 -0.0219175 	0.0044117 	9.29773e-23 -0.021709 	0.00437429 	8.50682e-23 -0.02131 	0.0045188 	1.1591e-22 -0.0209297 	0.0046707 	1.47269e-22 -0.0205691 	0.00483032 	1.79166e-22 -0.0203214 	0.00495247 	2.0281e-22 -0.0202249 	0.00500654 	2.04663e-22 -0.0201305 	0.00506143 	2.06452e-22 -0.0200381 	0.00511715 	2.08176e-22 -0.0199477 	0.00517369 	2.09834e-22 -0.0197928 	0.00527876 	2.18019e-22 -0.0192885 	0.00542917 	1.97712e-22 -0.0188667 	0.0056443 	2.01962e-22 -0.0184767 	0.0058747 	2.03822e-22 -0.018043 	0.00617882 	2.23164e-22 -0.017468 	0.00664288 	2.82974e-22 -0.0169785 	0.00676615 	1.60598e-22 -0.0165196 	0.0069079 	3.73671e-23 -0.0159608 	0.00716975 	0 -0.0155088 	0.0076049 	4.02552e-23 -0.0150795 	0.0081153 	8.13319e-23 -0.0149352 	0.00818653 	3.484e-23 -0.0147823 	0.00827135 	0 -0.0145943 	0.0083901 	0 -0.0144138 	0.00851424 	0 -0.0142684 	0.00862336 	0 -0.0139409 	0.00888211 	0 -0.0136369 	0.00916017 	0 -0.0133572 	0.00945784 	0 -0.0130164 	0.00978968 	0 -0.0126407 	0.010206 	0 -0.0122893 	0.0104688 	0 -0.0119715 	0.0107621 	0 -0.0116393 	0.0110662 	0 -0.0113286 	0.0113961 	0 -0.0111327 	0.0116545 	0 -0.010911 	0.0119246 	0 -0.0107032 	0.012209 	0 -0.0104927 	0.0124789 	-1.83883e-23 -0.0102824 	0.0127395 	-5.14277e-23 -0.0100362 	0.0130819 	-9.26478e-23 -0.00978408 	0.0133819 	-9.89796e-23 -0.00955441 	0.0137075 	-1.06419e-22 -0.00935198 	0.0140399 	-1.37361e-22 -0.00919688 	0.0143017 	-2.85241e-22 -0.00907867 	0.014539 	-4.10983e-22 -0.0085594 	0.015145 	-6.35322e-22 -0.00810047 	0.0158072 	-8.24909e-22 -0.00777341 	0.0162818 	-5.2936e-22 -0.00748149 	0.0168057 	-2.38873e-22 -0.00727982 	0.017508 	1.44844e-22 -0.00721226 	0.0176566 	2.42294e-22 -0.00715586 	0.0177762 	2.71442e-22 -0.00710921 	0.0178701 	2.40367e-22 -0.00706342 	0.0179653 	2.09628e-22 -0.00701254 	0.0180746 	1.75184e-22 -0.00677056 	0.0185689 	1.5983e-22 -0.00655318 	0.0191044 	1.45927e-22 -0.00635897 	0.0196786 	1.33393e-22 -0.00628583 	0.0201501 	1.35519e-22 -0.00639819 	0.0203743 	1.60958e-22 -0.00583106 	0.0210089 	1.01074e-22 -0.00529809 	0.0217317 	4.22722e-23 -0.00520768 	0.0224907 	1.7011e-22 -0.0054305 	0.022852 	3.5613e-22 -0.00563089 	0.0231717 	5.27924e-22 -0.00505106 	0.0240513 	2.33256e-22 -0.00458787 	0.0248857 	0 -0.00448376 	0.0251971 	0 -0.00458567 	0.0255656 	2.90645e-25 -0.00485382 	0.0259418 	8.17652e-25 -0.00426683 	0.0270852 	2.97972e-26 -0.00414613 	0.027467 	0 -0.00404884 	0.0278429 	0 -0.00395674 	0.0282433 	0 -0.00408679 	0.0286455 	-1.21494e-22 -0.0038276 	0.0292846 	0 -0.00376543 	0.0295393 	0 -0.00370529 	0.0298049 	0 -0.00364713 	0.0300811 	0 -0.00356045 	0.0305228 	0 -0.00353583 	0.0306632 	0 -0.0035116 	0.0308057 	0 -0.00348775 	0.0309504 	0 -0.00346428 	0.0310972 	0 -0.00348661 	0.0310558 	0 -0.00333837 	0.0315146 	0 -0.00324816 	0.0319833 	0 -0.0031624 	0.0324796 	0 -0.0030809 	0.0330023 	0 -0.00319776 	0.0326575 	0 -0.00289396 	0.0333332 	0 -0.0028071 	0.0338569 	0 -0.00272429 	0.0344091 	0 -0.00265484 	0.034941 	0 -0.00289921 	0.0339414 	0 -0.00252925 	0.0348609 	0 -0.00238751 	0.0355121 	0 -0.00230722 	0.0361098 	0 -0.00235196 	0.036075 	0 -0.00259928 	0.0349211 	0 -0.00223537 	0.0360062 	0 -0.00199705 	0.0369325 	0 -0.00191983 	0.0375639 	0 -0.00206313 	0.0369435 	0 -0.00230986 	0.0356422 	0 -0.00195684 	0.0368856 	0 -0.00164736 	0.0381486 	7.60865e-38 -0.00157537 	0.0388018 	6.47717e-37 -0.00180061 	0.0376038 	1.22095e-36 -0.00204488 	0.0361643 	1.78734e-36 -0.00170663 	0.037555 	1.15686e-36 -0.00137577 	0.0390807 	5.32655e-37 -0.00132718 	0.0395487 	7.8244e-40 -0.00157589 	0.0380779 	1.66316e-39 -0.00181859 	0.0365101 	2.53359e-39 -0.00149762 	0.0380357 	1.57789e-39 -0.00118331 	0.039699 	6.31247e-40 -0.00115207 	0.0399712 	-3.96401e-37 -0.00140399 	0.0383868 	-9.75528e-37 -0.00165027 	0.0366978 	-1.54836e-36 -0.00134733 	0.0383474 	-9.25746e-37 -0.00105052 	0.0401366 	-3.08746e-37 -0.00103873 	0.0402477 	0 -0.00130567 	0.0385536 	0 -0.00156679 	0.036742 	0 -0.0012809 	0.0385123 	0 -0.00100096 	0.040425 	0 -0.00100589 	0.040382 	0 -0.00130863 	0.0385694 	0 -0.00160437 	0.0366156 	0 -0.00133361 	0.0385209 	0 -0.00106925 	0.040575 	0 -0.00107705 	0.0403341 	0 -0.00144818 	0.038368 	0 -0.00180901 	0.0362164 	0 -0.00155311 	0.0383081 	0 -0.0013052 	0.0405627 	0 -0.00128158 	0.0399521 	0 -0.00175778 	0.0377693 	0 -0.00222498 	0.0352964 	0 -0.0019914 	0.0377031 	0 -0.00180381 	0.0395366 	0 -0.00175771 	0.0385262 	0 -0.0022183 	0.0362555 	0 -0.00283648 	0.0332143 	0 -0.00265308 	0.0362241 	0 -0.00250911 	0.0369921 	0 -0.00239364 	0.0352897 	0 -0.00262587 	0.0328165 	0 -0.0034179 	0.0287618 	0 -0.00335646 	0.0329912 	0 -0.00309032 	0.0309391 	0 -0.00279276 	0.02796 	0 -0.00249521 	0.024981 	0 -0.00318098 	0.0195799 	0 -0.00308261 	0.0222058 	0 -0.00242181 	0.0174456 	0 -0.001761 	0.0126855 	0 -0.0011002 	0.00792537 	0 -0.000160771 	0.000772434 	0 -0.000169506 	0.000983694 	0 -0.000134191 	0.000778751 	0 -9.88763e-05 	0.000573807 	0 -6.35612e-05 	0.000368864 	0 0 	0 	0
-0.0430579 	4.30878e-05 	0 -0.0430268 	0.000255148 	-2.01932e-23 -0.0429448 	0.000488293 	-4.6115e-23 -0.0428835 	0.000721948 	-7.21757e-23 -0.0428429 	0.000956108 	-9.83753e-23 -0.0427785 	0.00118075 	-1.24962e-22 -0.0426312 	0.00137647 	-1.5383e-22 -0.0424462 	0.00159529 	-1.54217e-22 -0.0422809 	0.00181563 	-1.53812e-22 -0.0421357 	0.0020375 	-1.52608e-22 -0.0420851 	0.00212795 	-1.51794e-22 -0.0420723 	0.00215487 	-1.52073e-22 -0.0420598 	0.00218181 	-1.52348e-22 -0.0420476 	0.00220877 	-1.52618e-22 -0.0420358 	0.00223576 	-1.52884e-22 -0.0420147 	0.00226738 	-1.53943e-22 -0.0417376 	0.00247497 	-1.26076e-22 -0.0414762 	0.00268412 	-9.81866e-23 -0.0412353 	0.00289594 	-7.01103e-23 -0.0410151 	0.00311047 	-4.18448e-23 -0.0407026 	0.00338672 	-1.88873e-23 -0.0403891 	0.00358311 	-4.13056e-24 -0.0400663 	0.00378671 	4.38361e-24 -0.039764 	0.00399402 	1.31169e-23 -0.0394828 	0.00420511 	2.2074e-23 -0.0389594 	0.00456602 	1.71466e-23 -0.0385986 	0.00472277 	2.10517e-22 -0.0382378 	0.00492757 	2.53984e-22 -0.0378983 	0.00513727 	2.98741e-22 -0.0374807 	0.00541107 	2.7408e-22 -0.0368392 	0.00584138 	7.40445e-23 -0.0364201 	0.00597462 	4.75002e-23 -0.0360251 	0.0061314 	3.02393e-23 -0.0356728 	0.00635181 	4.22596e-23 -0.0350199 	0.0067839 	7.48261e-23 -0.0343923 	0.00724254 	1.07676e-22 -0.0339476 	0.00737392 	5.86437e-23 -0.0335207 	0.00751207 	9.41001e-24 -0.0328607 	0.00782814 	7.34273e-26 -0.0322474 	0.00829477 	1.66989e-23 -0.0316674 	0.00878992 	3.31694e-23 -0.0312302 	0.00893889 	5.12191e-24 -0.0305828 	0.00926224 	0 -0.0299208 	0.00964139 	0 -0.0293012 	0.0100425 	0 -0.0287398 	0.0104564 	0 -0.0287331 	0.0104625 	0 -0.0287264 	0.0104686 	0 -0.0287197 	0.0104747 	0 -0.0287117 	0.0104814 	0 -0.0287014 	0.0104895 	0 -0.02804 	0.0108866 	0 -0.0274249 	0.0113135 	0 -0.0268548 	0.0117685 	0 -0.0262322 	0.0123006 	0 -0.0254496 	0.0129958 	0 -0.0248115 	0.0133897 	0 -0.0242058 	0.0138263 	0 -0.0234615 	0.0143742 	0 -0.0227843 	0.0149704 	0 -0.0220867 	0.0157134 	0 -0.022086 	0.0157141 	0 -0.0220853 	0.0157148 	0 -0.0220844 	0.0157155 	0 -0.0220835 	0.0157162 	0 -0.0220826 	0.0157169 	0 -0.0213188 	0.0163452 	0 -0.0206231 	0.0170371 	0 -0.019983 	0.0177882 	-2.18656e-26 -0.0192696 	0.0185566 	-2.57729e-25 -0.0184333 	0.019655 	-5.68417e-25 -0.0183402 	0.0197793 	-5.69823e-25 -0.0182491 	0.0199056 	-5.71477e-25 -0.0181545 	0.0200243 	-6.73638e-24 -0.0180542 	0.0201316 	-2.14308e-23 -0.0179609 	0.0202352 	-3.53701e-23 -0.0171816 	0.0210751 	-3.1257e-23 -0.0164816 	0.0220051 	-2.3729e-23 -0.0158269 	0.0228673 	-5.18064e-23 -0.0152532 	0.0237372 	-1.10473e-22 -0.014852 	0.0246317 	-1.89529e-22 -0.0147589 	0.0248265 	-2.53683e-22 -0.0146674 	0.0250174 	-3.03129e-22 -0.0145748 	0.0251655 	-2.40833e-22 -0.0144839 	0.0253154 	-1.78953e-22 -0.0143855 	0.0254827 	-1.11187e-22 -0.0139325 	0.0262049 	2.51255e-22 -0.0135223 	0.0269806 	6.01365e-22 -0.013153 	0.0278069 	9.39514e-22 -0.0129112 	0.0284007 	6.46188e-22 -0.0127429 	0.0288825 	2.27706e-22 -0.0120951 	0.0299563 	-1.28657e-22 -0.0115015 	0.0311139 	-4.89836e-22 -0.0111259 	0.0318084 	-8.85517e-23 -0.0108902 	0.0325773 	6.58174e-22 -0.0107962 	0.0333249 	1.62963e-21 -0.010451 	0.0341702 	2.2748e-21 -0.0102153 	0.0347388 	2.03836e-21 -0.0100176 	0.0352397 	1.55501e-21 -0.00982938 	0.0357584 	1.08178e-21 -0.00956962 	0.0365363 	4.09026e-22 -0.00947867 	0.0368393 	3.06513e-22 -0.00939028 	0.0371473 	2.04261e-22 -0.00930439 	0.0374602 	1.02269e-22 -0.00922432 	0.0377718 	2.85926e-24 -0.0092894 	0.0378255 	3.0303e-24 -0.00877738 	0.0387524 	-8.41458e-23 -0.00850573 	0.0397402 	-2.94359e-22 -0.00825604 	0.040775 	-5.08499e-22 -0.00816033 	0.0415823 	-7.26039e-22 -0.00839911 	0.0417358 	-9.38274e-22 -0.00772498 	0.0428989 	-6.14467e-22 -0.00712857 	0.0441434 	-1.60158e-22 -0.00695038 	0.0452952 	1.24519e-21 -0.00724506 	0.0454571 	2.36745e-21 -0.00752305 	0.0455848 	3.45155e-21 -0.00684452 	0.046976 	1.91972e-21 -0.00619291 	0.0484706 	4.08897e-22 -0.00603289 	0.0490979 	6.55108e-25 -0.00635664 	0.0492211 	3.63829e-24 -0.00666441 	0.049305 	6.54063e-24 -0.00598652 	0.0509167 	2.7027e-24 -0.00548632 	0.052231 	0 -0.00537864 	0.0526249 	0 -0.00550945 	0.0528356 	-2.99932e-21 -0.00583641 	0.0528554 	-8.50604e-21 -0.00516473 	0.0546725 	-1.61305e-21 -0.00492723 	0.0554143 	0 -0.00482309 	0.0558332 	0 -0.00472159 	0.0562731 	0 -0.00505583 	0.05621 	-1.07916e-23 -0.00448875 	0.0579247 	0 -0.00438682 	0.0583387 	0 -0.00428725 	0.058774 	0 -0.00418999 	0.05923 	0 -0.00433583 	0.0593256 	2.53886e-21 -0.00397435 	0.0605525 	3.30156e-37 -0.00387988 	0.0609752 	9.66384e-37 -0.0037874 	0.0614182 	1.6015e-36 -0.00369687 	0.0618813 	2.23551e-36 -0.00369604 	0.0621897 	2.98367e-36 -0.0035431 	0.0627992 	3.24557e-36 -0.00348846 	0.0630755 	2.69694e-36 -0.00343451 	0.06336 	2.15133e-36 -0.00338125 	0.0636525 	1.60873e-36 -0.00331025 	0.0640583 	8.80031e-37 -0.00328717 	0.0641976 	6.95859e-37 -0.00326423 	0.0643383 	5.11766e-37 -0.00324141 	0.0644806 	3.27751e-37 -0.00321873 	0.0646244 	1.43813e-37 -0.00321852 	0.0646151 	4.48392e-39 -0.00313398 	0.0651109 	-5.18197e-37 -0.00307112 	0.0655391 	-1.08634e-36 -0.00300942 	0.0659826 	-1.65528e-36 -0.00294888 	0.066441 	-2.225e-36 -0.00297874 	0.0662396 	-2.7948e-36 -0.00285877 	0.0670478 	-2.17218e-36 -0.00282861 	0.0674827 	-1.55089e-36 -0.00279912 	0.0679269 	-9.30012e-37 -0.00277027 	0.0683802 	-3.09535e-37 -0.00288492 	0.0676528 	0 -0.00273886 	0.0688071 	0 -0.00276219 	0.0692661 	0 -0.00278546 	0.0697242 	0 -0.00280866 	0.0701813 	0 -0.00301859 	0.0688919 	0 -0.00283972 	0.0704459 	0 -0.00294944 	0.0709631 	0 -0.00305777 	0.071462 	0 -0.00316475 	0.0719429 	0 -0.0034947 	0.0699639 	0 -0.00324648 	0.0720319 	0 -0.00349379 	0.0726662 	0 -0.00373691 	0.0732534 	0 -0.00400357 	0.0734118 	0 -0.00446218 	0.0707866 	0 -0.0042286 	0.0731932 	0 -0.00450595 	0.0744427 	0 -0.00495733 	0.0751998 	0 -0.00546733 	0.0743231 	0 -0.00606539 	0.0710238 	0 -0.00588199 	0.0740336 	0 -0.00604355 	0.0764238 	0 -0.00680342 	0.0774966 	0 -0.00756829 	0.0744377 	0 -0.00830389 	0.0698776 	0 -0.00824245 	0.0741071 	0 -0.00820162 	0.078514 	0 -0.00907427 	0.0787558 	0 -0.00990493 	0.0723993 	0 -0.0106403 	0.0654942 	0 -0.0108504 	0.0722458 	0 -0.0111138 	0.0793355 	0 -0.0105653 	0.0756801 	0 -0.0110342 	0.0653988 	0 -0.0113071 	0.0543254 	0 -0.0120311 	0.0664844 	0 -0.0115119 	0.0668066 	0 -0.0100043 	0.0580577 	0 -0.00849671 	0.0493088 	0 -0.00720048 	0.0312494 	0 -0.00790634 	0.0462286 	0 -0.00642234 	0.0375516 	0 -0.00493834 	0.0288746 	0 -0.00345434 	0.0201976 	0 0 	0 	0