# vtk DataFile Version 2.0
track0
ASCII
DATASET POLYDATA
POINTS 41143 float
0.05 8.57988e-20 2.57396e-18
0.05 0.00217391 -1.05592e-17
0.05 0.00217391 -1.05592e-17
0.05 0.00217391 -1.05592e-17
0.05 0.00217391 -1.05592e-17
0.05 0.00217391 -1.05592e-17
0.05 0.00217391 -1.38778e-17
0.0493333 0.00217502 -3.19189e-18
0.0486667 0.00217719 -5.55116e-19
0.048 0.00218093 -1.95381e-18
0.0473334 0.00218785 1.21373e-18
0.0466667 0.00219733 -6.93889e-18
0.046 0.00220923 -7.35523e-18
0.0453333 0.00222058 -7.14704e-18
0.0446667 0.00223256 -7.93939e-18
0.0440001 0.00224756 -1.20899e-17
0.0433333 0.00226604 -1.249e-17
0.0426667 0.00228836 -1.42941e-17
0.0419999 0.00230872 -1.26986e-17
0.0413332 0.00232935 -1.81526e-17
0.0406666 0.00235294 -1.43268e-17
0.04 0.00238052 -1.38778e-17
0.0393333 0.00241324 -1.08247e-17
0.0386665 0.00244283 -9.92237e-18
0.0379997 0.00247318 -5.45744e-18
0.0373331 0.00250652 -5.6163e-18
0.0366667 0.00254375 -5.55112e-18
0.036 0.00258732 -6.66134e-18
0.0353331 0.00262681 -1.24646e-18
0.0346663 0.00266859 3.90134e-18
0.0339997 0.00271357 -1.0953e-18
0.0333333 0.00276187 0
0.0326667 0.00281732 -3.747e-18
0.0319998 0.00286968 -3.33025e-18
0.0313331 0.00292547 -8.1736e-18
0.0306668 0.00298483 -8.49053e-18
0.03 0.00304796 0
0.0294499 0.00310504 -6.02279e-18
0.0288998 0.00316182 -7.1883e-18
0.0283499 0.00322128 -4.3861e-18
0.0278004 0.00328351 -9.70546e-19
0.0273799 0.00333333 2.47561e-18
0.0272373 0.00335083 1.25276e-17
0.0270946 0.00336854 5.23243e-18
0.026952 0.00338645 1.45907e-17
0.0268095 0.00340457 1.56223e-17
0.0266667 0.00342293 2.24283e-17
0.026 0.00351158 1.84864e-17
0.0253338 0.00360343 1.31647e-17
0.0246682 0.00370011 1.92875e-17
0.0240034 0.0038018 2.38641e-17
0.0233333 0.00390968 2.67958e-17
0.0226667 0.00403605 2.45036e-17
0.0219994 0.0041592 2.22169e-17
0.0213331 0.00428765 1.89453e-17
0.0206681 0.00442223 2.08063e-17
0.02 0.00457403 3.40935e-17
0.0193333 0.0047531 2.65796e-17
0.0186665 0.00493155 2.09803e-17
0.0179995 0.0051093 1.98754e-17
0.0173359 0.00529968 2.19122e-17
0.0166667 0.00552121 1.80411e-17
0.0160624 0.0057503 1.53872e-17
0.015459 0.00598161 7.39162e-18
0.0148598 0.00622368 8.39559e-18
0.0142677 0.00648234 -3.26127e-18
0.0138777 0.00666667 -5.06991e-18
0.0137688 0.00672092 -3.50081e-18
0.0136603 0.00677594 -1.93235e-18
0.0135522 0.00683171 -4.52788e-18
0.0134445 0.00688825 -5.71422e-18
0.0133333 0.00694792 -6.0195e-18
0.0126667 0.00731496 -8.01852e-18
0.0120123 0.00770355 -5.1962e-18
0.0113733 0.00811675 -7.21756e-18
0.0107514 0.00855546 -8.46568e-18
0.01 0.00914591 0
0.00980941 0.00931673 -3.68724e-18
0.00962046 0.00948936 -1.82747e-18
0.00943318 0.0096638 -5.57926e-18
0.00924762 0.00984008 -3.26722e-18
0.00908259 0.01 0
0.00859941 0.0104767 6.74181e-18
0.00813932 0.0109757 -1.52548e-18
0.00770382 0.0114962 -3.05186e-18
0.00729196 0.0120357 2.85484e-18
0.00666667 0.0129265 0
0.00661663 0.0130079 1.30445e-18
0.0065669 0.0130894 1.22164e-18
0.00651747 0.0131712 -1.63624e-18
0.00646835 0.0132531 5.88138e-18
0.00642037 0.0133333 1.11022e-17
0.00602279 0.014 1.27676e-17
0.00566158 0.0146871 6.41922e-18
0.00533106 0.0153894 4.29643e-18
0.00502727 0.0161037 2.64853e-18
0.00479035 0.0166667 -1.04412e-18
0.00451191 0.0173333 -5.2537e-19
0.00427297 0.0180152 -4.2414e-18
0.00406009 0.0187056 -5.45406e-18
0.00385806 0.0193992 4.6152e-18
0.00369274 0.02 5.72168e-19
0.00362086 0.0202582 2.67818e-18
0.00355466 0.020518 3.96354e-18
0.0034903 0.0207782 6.58574e-18
0.0034274 0.0210388 1.26756e-17
0.00333333 0.021438 1.18258e-17
0.00324724 0.0218171 5.40774e-18
0.00316379 0.0221967 1.08199e-17
0.0030829 0.0225769 9.29739e-18
0.00300446 0.0229577 1.19423e-17
0.0029295 0.0233333 0
0.00279199 0.024 1.20737e-17
0.00266998 0.0246697 1.51218e-17
0.0025557 0.0253407 1.72081e-17
0.00244853 0.0260129 1.86064e-17
0.00234565 0.0266667 1.80411e-17
0.00222958 0.0273333 2.04003e-17
0.00213237 0.028003 2.24202e-17
0.00205081 0.0286748 2.56197e-17
0.00197497 0.0293472 2.30788e-17
0.00189003 0.03 2.498e-17
0.00179059 0.0306667 2.2482e-17
0.00171121 0.031336 2.3102e-17
0.0016509 0.0320074 2.20517e-17
0.00159268 0.0326789 2.09914e-17
0.00152229 0.0333333 1.68816e-17
0.00143626 0.034 1.06289e-17
0.0013717 0.0346691 6.41672e-18
0.00132691 0.0353398 2.9516e-18
0.00128303 0.0360105 -2.42542e-18
0.00122513 0.0366667 9.06198e-18
0.00115028 0.0373333 4.3294e-18
0.00109847 0.0380022 9.76227e-18
0.00106064 0.038672 1.12322e-17
0.00102281 0.0393418 6.15824e-18
0.000976051 0.04 8.089e-18
0.000910775 0.0406667 1.2361e-17
0.000870433 0.0413353 1.29172e-17
0.000837755 0.0420044 9.84596e-18
0.000805076 0.0426734 1.20379e-17
0.000768629 0.0433333 1.05161e-17
0.000711687 0.044 1.26926e-17
0.000681941 0.0446684 1.63533e-17
0.000653742 0.0453369 1.43575e-17
0.000625543 0.0460054 1.91423e-17
0.00059765 0.0466667 1.56581e-17
0.000548033 0.0473333 1.64172e-17
0.000523749 0.0480014 1.93917e-17
0.000499466 0.0486695 1.92161e-17
0.000475182 0.0493375 1.22054e-17
0.000451102 0.05 1.59021e-17
0.000407903 0.0506667 7.89024e-18
0.000387007 0.0513344 3.6594e-18
0.000366111 0.0520021 9.15577e-18
0.000345215 0.0526699 1.01254e-17
0.000324454 0.0533333 1.33375e-17
0.000286763 0.054 1.83268e-17
0.000268693 0.0546675 1.70399e-17
0.000250623 0.055335 1.71363e-17
0.000232553 0.0560025 1.63717e-17
0.000214572 0.0566667 1.90716e-17
0.000181371 0.0573333 2.50943e-17
0.000165453 0.0580006 2.13749e-17
0.000149534 0.0586679 1.85247e-17
0.000133615 0.0593352 2.26176e-17
0.000117757 0.06 2.47839e-17
9.42056e-05 0.0605238 2.81241e-17
8.26844e-05 0.0610481 2.38122e-17
7.11632e-05 0.0615723 1.499e-17
5.96421e-05 0.0620966 1.66313e-17
3.24629e-05 0.0633333 2.07626e-17
2.59703e-05 0.0634856 2.85731e-17
2.26166e-05 0.063638 2.78784e-17
1.92628e-05 0.0637904 1.91172e-17
1.59091e-05 0.0639428 1.90296e-17
0 0.0646657 2.026e-17
0.05 0.00434783 5.94331e-18
0.0493333 0.00434873 2.47236e-18
0.0486667 0.0043527 -1.69759e-18
0.048 0.00435907 -3.95524e-18
0.0473334 0.00436711 2.6426e-19
0.0466667 0.00437805 -7.98481e-18
0.046 0.00439301 -1.00914e-17
0.0453334 0.00440964 -6.64963e-18
0.0446668 0.0044279 -1.33219e-17
0.0440003 0.0044478 -1.80795e-17
0.0433333 0.0044716 -1.25404e-17
0.0426667 0.00450061 -1.30411e-17
0.042 0.00453007 -1.00692e-17
0.0413334 0.00456025 -7.77168e-18
0.0406669 0.00459206 -1.3515e-17
0.04 0.00462947 -2.15874e-17
0.0393333 0.00467338 -1.78441e-17
0.0386666 0.00471676 -1.79164e-17
0.0379999 0.00475959 -1.91873e-17
0.0373333 0.0048047 -1.39254e-17
0.0366667 0.00485738 -6.90164e-18
0.036 0.00491796 -1.52265e-17
0.0353332 0.00497727 -1.89633e-17
0.0346663 0.00503529 -2.05382e-17
0.0339998 0.00509701 -2.04307e-17
0.0333333 0.00516771 -2.08167e-17
0.0326667 0.00524785 -1.42941e-17
0.0319998 0.00532629 -1.26283e-17
0.0313327 0.00540299 -1.20554e-17
0.0306664 0.00548572 -9.82945e-18
0.03 0.00557859 -6.93889e-18
0.0293333 0.0056826 -7.35523e-18
0.0286664 0.00578486 -1.0963e-17
0.028 0.0058905 -6.01106e-18
0.0273348 0.00600345 -1.82958e-18
0.0266667 0.0061249 -4.16334e-18
0.0261284 0.00623325 5.0598e-18
0.0255901 0.00634172 -4.45212e-18
0.0250529 0.00645562 2.42722e-18
0.024517 0.00657522 -5.11999e-18
0.0241276 0.00666667 -4.79213e-18
0.0239687 0.00670538 -3.64254e-19
0.02381 0.00674467 -6.34496e-18
0.0236515 0.00678453 -1.91756e-18
0.023493 0.00682499 -1.65375e-18
0.0233333 0.00686641 7.99403e-18
0.0226667 0.00704421 6.31016e-18
0.0220025 0.00723115 3.22328e-18
0.0213415 0.00742891 -2.54703e-18
0.020684 0.00763797 -4.37869e-18
0.02 0.00787219 -9.13167e-18
0.0193333 0.00812571 -2.77378e-18
0.0186708 0.00838975 -4.64224e-18
0.0180127 0.00866491 -2.91991e-18
0.0173621 0.00895717 -1.73279e-18
0.0166667 0.00929819 -6.93889e-18
0.0164058 0.00943855 -1.15366e-17
0.0161461 0.00958092 -1.16231e-17
0.0158876 0.00972554 -7.72323e-18
0.0156309 0.00987316 -9.37727e-18
0.0154161 0.01 -6.93889e-18
0.0149996 0.0102518 -6.8047e-18
0.0145891 0.0105133 -7.03467e-19
0.014185 0.0107847 -8.35728e-18
0.0137878 0.0110659 -8.00226e-18
0.0133333 0.0114078 2.68631e-18
0.0128563 0.0117929 4.75675e-18
0.0123896 0.0121904 -1.83782e-19
0.0119337 0.0126003 5.96098e-19
0.0114894 0.0130227 5.75277e-19
0.0111806 0.0133333 5.20362e-18
0.0109445 0.0135805 4.44045e-18
0.0107137 0.0138327 1.88902e-18
0.0104884 0.0140898 1.22425e-17
0.0102684 0.0143514 1.72079e-17
0.01 0.0146839 1.00973e-17
0.00969576 0.0150805 8.81117e-19
0.00940076 0.0154839 1.77762e-18
0.00911495 0.015894 6.33114e-18
0.00883786 0.0163099 7.13953e-18
0.00860846 0.0166667 1.52656e-17
0.0082201 0.0172886 7.69687e-18
0.00785933 0.0179269 8.59152e-18
0.00752493 0.0185794 6.51285e-18
0.00720902 0.0192411 1.12882e-17
0.00687118 0.02 1.02253e-17
0.00683028 0.0200984 1.84498e-17
0.00678999 0.020197 7.66874e-18
0.00675021 0.0202958 1.38844e-17
0.00671082 0.0203948 1.20331e-17
0.00666667 0.0205071 1.09812e-17
0.00644735 0.0210724 1.3781e-17
0.00623966 0.021642 1.44883e-17
0.00604293 0.0222155 2.25535e-17
0.0058565 0.0227924 2.28598e-17
0.00568776 0.0233333 2.22045e-17
0.0054784 0.024 2.31759e-17
0.00529152 0.0246733 2.72588e-17
0.00512601 0.0253522 2.60712e-17
0.00496839 0.026033 2.10965e-17
0.0048178 0.0266667 2.81678e-17
0.00465579 0.0273333 3.1406e-17
0.00451479 0.0280048 3.35675e-17
0.0043904 0.0286795 3.75875e-17
0.00427021 0.0293549 3.1364e-17
0.0041545 0.03 3.47147e-17
0.00402977 0.0306667 3.63102e-17
0.00392423 0.0313366 3.66303e-17
0.003823 0.0320073 4.03722e-17
0.0037254 0.0326785 4.20301e-17
0.00363366 0.0333333 4.2521e-17
0.00357359 0.0337544 4.64447e-17
0.00351848 0.0341761 4.48102e-17
0.0034647 0.034598 4.49084e-17
0.00341223 0.03502 5.18999e-17
0.00333333 0.0356708 5.68989e-17
0.0033101 0.0358699 5.68602e-17
0.00328713 0.0360691 5.95975e-17
0.00326441 0.0362684 5.53964e-17
0.00324196 0.0364677 5.25834e-17
0.00321979 0.0366667 5.41234e-17
0.00314495 0.0373333 4.67681e-17
0.00307428 0.0380005 4.94736e-17
0.0030065 0.0386679 5.21913e-17
0.00294149 0.0393356 5.48586e-17
0.00287947 0.04 4.996e-17
0.0028142 0.0406667 4.88498e-17
0.00275626 0.041334 4.91262e-17
0.00270092 0.0420016 5.16824e-17
0.00264805 0.0426693 5.2489e-17
[...]
POINT_DATA 41143
 FIELD attributes 1
U 3 41143 float
-6.45054e-19 	-1.7018e-21 	0
-0.0152341 	2.53606e-05 	0 -0.0152341 	2.53606e-05 	0 -0.0152341 	2.53606e-05 	0 -0.0152341 	2.53606e-05 	0 -0.0152341 	2.53606e-05 	0 -0.0152341 	2.53606e-05 	0 -0.0155677 	5.05107e-05 	0 -0.0158051 	8.87831e-05 	-3.92994e-25 -0.0157654 	0.000163568 	-1.87995e-24 -0.015512 	0.000220569 	-3.37389e-24 -0.0151878 	0.000271069 	-4.87369e-24 -0.0155126 	0.000264257 	1.90922e-22 -0.0156952 	0.000281994 	3.21828e-22 -0.0155948 	0.000350924 	3.17978e-22 -0.015361 	0.000425762 	1.90143e-22 -0.0150657 	0.000504276 	-6.04454e-24 -0.0153677 	0.000469431 	3.49811e-23 -0.0154588 	0.000478414 	5.57409e-23 -0.0153089 	0.000541727 	5.16424e-23 -0.0151046 	0.000624852 	2.80038e-23 -0.0148492 	0.000728855 	-1.59497e-23 -0.0151177 	0.000670861 	-1.17022e-23 -0.0150877 	0.000686608 	-2.87131e-23 -0.0149023 	0.000745454 	-5.79379e-23 -0.0147183 	0.000822077 	-8.83958e-23 -0.0145109 	0.00094836 	-1.22199e-22 -0.0147381 	0.000872727 	-9.2266e-23 -0.0145675 	0.000912863 	-8.7311e-23 -0.0143613 	0.000969121 	-8.57463e-23 -0.0141716 	0.00102716 	-8.44653e-23 -0.0140173 	0.0011658 	-1.10931e-22 -0.0141155 	0.00110827 	-1.93987e-22 -0.0138871 	0.00116213 	-1.5577e-22 -0.0136745 	0.0012181 	-1.16973e-22 -0.0134782 	0.00127627 	-7.75725e-23 -0.0133419 	0.00138424 	1.0846e-23 -0.0132949 	0.00137225 	-4.68851e-23 -0.0131096 	0.00141759 	-3.33885e-23 -0.0129349 	0.00146467 	-1.92136e-23 -0.0127712 	0.00151357 	-4.33627e-24 -0.0126546 	0.00155243 	7.60852e-24 -0.0126179 	0.00156631 	1.18904e-23 -0.0125819 	0.00158033 	1.62252e-23 -0.0125468 	0.00159449 	2.06131e-23 -0.0125125 	0.00160878 	2.50547e-23 -0.0124418 	0.00165439 	9.22734e-24 -0.0122029 	0.00168251 	6.84498e-24 -0.0119993 	0.001743 	7.76434e-24 -0.0118117 	0.0018068 	8.65284e-24 -0.0116409 	0.00187402 	9.50914e-24 -0.0112831 	0.00213887 	5.15438e-23 -0.010932 	0.00201749 	3.8164e-22 -0.0107431 	0.00207115 	4.68486e-22 -0.0105808 	0.00214105 	5.40948e-22 -0.010317 	0.00234433 	4.40267e-22 -0.00998318 	0.0026816 	1.81633e-22 -0.00967547 	0.00258912 	4.48156e-22 -0.00936615 	0.00249595 	7.14661e-22 -0.00905284 	0.00259743 	7.28825e-22 -0.00878546 	0.002908 	4.94561e-22 -0.0085652 	0.00324736 	2.61476e-22 -0.00834123 	0.00319758 	4.6574e-22 -0.00805903 	0.00325585 	5.01488e-22 -0.0077608 	0.00338987 	4.34411e-22 -0.00749627 	0.00354342 	3.63966e-22 -0.00734386 	0.00365973 	3.1459e-22 -0.0072961 	0.00369952 	3.00618e-22 -0.00724981 	0.00374027 	2.865e-22 -0.00720502 	0.00378199 	2.72235e-22 -0.00714672 	0.00383566 	2.70611e-22 -0.00708062 	0.00389825 	2.75256e-22 -0.00667593 	0.00396464 	1.82724e-22 -0.00640877 	0.00414364 	9.8693e-23 -0.00617137 	0.0043539 	1.92438e-23 -0.00590174 	0.0046375 	2.6154e-23 -0.0056236 	0.00504018 	3.22277e-23 -0.00556186 	0.00508163 	1.85905e-23 -0.00550325 	0.005126 	4.94682e-24 -0.00544686 	0.00517436 	3.03464e-23 -0.00539317 	0.00522631 	7.79577e-23 -0.00534789 	0.00527566 	1.20716e-22 -0.00504052 	0.00546676 	1.21575e-22 -0.00476615 	0.00569742 	1.16456e-22 -0.00453179 	0.00593609 	1.05312e-22 -0.00433579 	0.0061769 	8.86291e-23 -0.00406823 	0.00661499 	5.3867e-23 -0.00405141 	0.00664317 	8.92522e-23 -0.00403498 	0.00667186 	1.24332e-22 -0.00401893 	0.00670107 	1.59109e-22 -0.00401922 	0.00672263 	8.48509e-23 -0.00402134 	0.00674304 	4.02342e-25 -0.00363444 	0.00691304 	-6.81517e-22 -0.00342191 	0.00727127 	-1.12673e-21 -0.00326941 	0.00768745 	-1.50792e-21 -0.00335991 	0.00798396 	-1.19513e-21 -0.00343411 	0.00822207 	-9.48233e-22 -0.00300747 	0.00858219 	-6.2327e-22 -0.00274235 	0.00889378 	-3.65838e-22 -0.00264926 	0.00909611 	-1.98698e-22 -0.00256585 	0.00932418 	-2.6619e-23 -0.0026955 	0.00968425 	1.80165e-23 -0.00253001 	0.00992748 	1.46746e-24 -0.00248166 	0.0100347 	0 -0.00244606 	0.010133 	0 -0.002412 	0.010236 	0 -0.00236217 	0.0104006 	0 -0.00231928 	0.0105517 	0 -0.00227912 	0.0107119 	0 -0.00224161 	0.0108808 	0 -0.00220665 	0.0110581 	0 -0.00226998 	0.0110055 	0 -0.00202246 	0.0111009 	0 -0.00194949 	0.0114472 	0 -0.00188564 	0.0118276 	0 -0.00189584 	0.0120469 	0 -0.00205848 	0.0118225 	0 -0.00173796 	0.0119732 	0 -0.0014892 	0.012266 	0 -0.00144225 	0.0127866 	0 -0.00163415 	0.0125602 	0 -0.00182314 	0.0122216 	0 -0.00148262 	0.0125029 	0 -0.00116047 	0.0129177 	0 -0.00112846 	0.0130157 	0 -0.00136111 	0.0126555 	0 -0.00157373 	0.0121952 	0 -0.00121796 	0.0126228 	0 -0.000883421 	0.0132264 	0 -0.000840663 	0.0128527 	0 -0.00109463 	0.012403 	0 -0.00132682 	0.0118185 	0 -0.00096089 	0.0124043 	0 -0.000720264 	0.0127516 	0 -0.000695457 	0.0123125 	0 -0.000836511 	0.0117765 	0 -0.00108405 	0.0110715 	0 -0.000713337 	0.011823 	0 -0.000577382 	0.0118214 	0 -0.000555706 	0.0113776 	0 -0.000599769 	0.0108594 	0 -0.000857939 	0.0100446 	0 -0.000487937 	0.0109643 	0 -0.000447713 	0.0106137 	0 -0.0004292 	0.0101748 	0 -0.000410686 	0.00973594 	0 -0.000657878 	0.00883933 	0 -0.000348981 	0.0096009 	0 -0.000333518 	0.00917548 	0 -0.000318054 	0.00875007 	0 -0.000302591 	0.00832465 	0 -0.000481718 	0.007434 	0 -0.0002478 	0.00791858 	0 -0.000235106 	0.00751293 	0 -0.000222412 	0.00710728 	0 -0.000209718 	0.00670163 	0 -0.000332262 	0.00587707 	2.90442e-37 -0.000164768 	0.00608636 	0 -0.000154385 	0.00570283 	0 -0.000144003 	0.00531931 	0 -0.00013362 	0.00493579 	0 -0.000210304 	0.00422289 	2.93001e-40 -9.92949e-05 	0.00416236 	0 -9.05799e-05 	0.00379704 	0 -8.18648e-05 	0.00343171 	0 -7.31498e-05 	0.00306638 	0 -0.000112157 	0.00249467 	-1.05252e-37 -5.09546e-05 	0.0023186 	0 -4.4723e-05 	0.00203503 	0 -3.84913e-05 	0.00175147 	0 -3.22596e-05 	0.00146791 	0 -3.13558e-05 	0.000735508 	0 -1.50187e-05 	0.000682459 	0 -1.30792e-05 	0.000594328 	0 -1.11397e-05 	0.000506197 	0 -9.20025e-06 	0.000418066 	0 0 	0 	0
-0.029629 	4.01812e-05 	0 -0.0298505 	0.000177959 	0 -0.0299592 	0.000285923 	-6.96346e-25 -0.0299374 	0.000360997 	-2.16084e-24 -0.0297503 	0.000488448 	-1.78095e-23 -0.029433 	0.000660397 	-4.54624e-23 -0.0295649 	0.000737347 	-2.2493e-22 -0.0296237 	0.000811888 	-3.35592e-22 -0.0295658 	0.000882552 	-3.41452e-22 -0.0292861 	0.00104491 	-2.31191e-22 -0.0289052 	0.00125787 	-5.87582e-23 -0.0289489 	0.00127952 	-6.89701e-23 -0.0289655 	0.00131105 	-7.79207e-23 -0.028877 	0.00137835 	-8.22138e-23 -0.0284825 	0.00159788 	-5.57928e-23 -0.0280621 	0.00184837 	-2.38205e-23 -0.0280256 	0.00182322 	-4.75096e-23 -0.027986 	0.00179772 	-7.11992e-23 -0.0278316 	0.0018836 	-9.42551e-23 -0.0273576 	0.00216204 	-9.0924e-23 -0.0269228 	0.00244649 	-8.72308e-23 -0.0268184 	0.00238547 	-2.7504e-22 -0.0267074 	0.00232344 	-4.62943e-22 -0.0264026 	0.00244458 	-4.47413e-22 -0.0259352 	0.00275148 	-2.28741e-22 -0.02551 	0.00306645 	-9.50168e-24 -0.025353 	0.00298222 	1.52653e-22 -0.025188 	0.00289641 	3.14741e-22 -0.0246705 	0.00306279 	3.27914e-22 -0.0242277 	0.00337643 	2.40407e-22 -0.0238337 	0.00371849 	1.4026e-22 -0.0236405 	0.0036246 	2.78942e-22 -0.0232523 	0.00368595 	3.15056e-22 -0.0227455 	0.00386209 	2.78586e-22 -0.0222673 	0.0040479 	2.40909e-22 -0.0219212 	0.00441244 	9.29621e-23 -0.0217126 	0.00437502 	8.50532e-23 -0.0213136 	0.00451956 	1.15887e-22 -0.0209332 	0.00467149 	1.47237e-22 -0.0205725 	0.00483114 	1.79126e-22 -0.0203248 	0.00495332 	2.02763e-22 -0.0202283 	0.00500739 	2.04614e-22 -0.0201339 	0.00506229 	2.06402e-22 -0.0200415 	0.005118 	2.08125e-22 -0.0199511 	0.00517455 	2.09782e-22 -0.0197962 	0.00527963 	2.17964e-22 -0.0192918 	0.00543006 	1.97664e-22 -0.0188699 	0.00564523 	2.01909e-22 -0.0184799 	0.00587567 	2.03766e-22 -0.0180461 	0.00617983 	2.23099e-22 -0.017471 	0.00664398 	2.82891e-22 -0.0169814 	0.00676726 	1.60552e-22 -0.0165225 	0.00690902 	3.736e-23 -0.0159635 	0.0071709 	0 -0.0155115 	0.00760614 	4.02423e-23 -0.0150821 	0.00811662 	8.13014e-23 -0.0149379 	0.00818786 	3.48266e-23 -0.0147849 	0.00827269 	0 -0.0145968 	0.00839147 	0 -0.0144163 	0.00851564 	0 -0.0142708 	0.00862478 	0 -0.0139433 	0.00888356 	0 -0.0136393 	0.00916165 	0 -0.0133596 	0.00945936 	0 -0.0130187 	0.00979123 	0 -0.012643 	0.0102076 	0 -0.0122915 	0.0104705 	0 -0.0119736 	0.0107638 	0 -0.0116414 	0.0110679 	0 -0.0113306 	0.0113979 	0 -0.0111347 	0.0116564 	0 -0.0109129 	0.0119264 	0 -0.0107051 	0.0122109 	0 -0.0104945 	0.0124808 	-1.84909e-23 -0.0102842 	0.0127415 	-5.17156e-23 -0.0100381 	0.0130838 	-9.31657e-23 -0.00978584 	0.0133839 	-9.95336e-23 -0.0095561 	0.0137096 	-1.07016e-22 -0.00935361 	0.014042 	-1.38062e-22 -0.00919846 	0.0143039 	-2.86297e-22 -0.00908021 	0.0145413 	-4.12341e-22 -0.00856089 	0.0151474 	-6.3719e-22 -0.00810192 	0.0158096 	-8.27197e-22 -0.00777481 	0.0162843 	-5.30585e-22 -0.00748284 	0.0168082 	-2.39057e-22 -0.00728094 	0.0175109 	1.46313e-22 -0.00721343 	0.0176593 	2.44033e-22 -0.00715707 	0.0177788 	2.73217e-22 -0.00711044 	0.0178727 	2.41976e-22 -0.00706469 	0.0179678 	2.11072e-22 -0.00701384 	0.0180771 	1.76445e-22 -0.00677175 	0.0185715 	1.60835e-22 -0.00655428 	0.0191072 	1.46684e-22 -0.00635998 	0.0196816 	1.33907e-22 -0.00628683 	0.0201533 	1.35911e-22 -0.00639922 	0.0203775 	1.61431e-22 -0.00583198 	0.0210123 	1.01366e-22 -0.0052989 	0.0217353 	4.23874e-23 -0.00520843 	0.0224943 	1.69679e-22 -0.00543129 	0.0228556 	3.55298e-22 -0.00563172 	0.0231754 	5.2672e-22 -0.00505178 	0.0240552 	2.3269e-22 -0.00458858 	0.0248896 	0 -0.00448444 	0.0252011 	0 -0.00458624 	0.0255696 	2.9027e-25 -0.00485444 	0.0259459 	8.16904e-25 -0.00426734 	0.0270895 	2.96167e-26 -0.0041467 	0.0274713 	0 -0.00404939 	0.0278473 	0 -0.00395727 	0.0282478 	0 -0.00408721 	0.02865 	-1.21327e-22 -0.0038281 	0.029289 	0 -0.00376594 	0.0295436 	0 -0.00370581 	0.0298091 	0 -0.00364766 	0.0300852 	0 -0.003561 	0.0305267 	0 -0.00353634 	0.0306673 	0 -0.00351207 	0.03081 	0 -0.00348819 	0.0309549 	0 -0.00346469 	0.0311018 	0 -0.00348705 	0.0310604 	0 -0.00333871 	0.0315193 	0 -0.00324848 	0.0319881 	0 -0.00316269 	0.0324845 	0 -0.00308117 	0.0330073 	0 -0.00319809 	0.0326622 	0 -0.00289418 	0.0333381 	0 -0.0028073 	0.0338619 	0 -0.00272447 	0.0344141 	0 -0.00265504 	0.0349459 	0 -0.00289943 	0.0339462 	0 -0.00252943 	0.0348659 	0 -0.00238762 	0.0355172 	0 -0.00230729 	0.036115 	0 -0.00235206 	0.0360799 	0 -0.0025994 	0.0349258 	0 -0.00223546 	0.0360111 	0 -0.00199708 	0.0369376 	0 -0.00191983 	0.0375691 	0 -0.00206315 	0.0369485 	0 -0.00230989 	0.0356469 	0 -0.00195685 	0.0368905 	0 -0.00164733 	0.0381538 	7.60556e-38 -0.00157531 	0.038807 	6.47737e-37 -0.00180057 	0.0376087 	1.22102e-36 -0.00204483 	0.036169 	1.78746e-36 -0.00170657 	0.03756 	1.15693e-36 -0.0013757 	0.0390859 	5.32684e-37 -0.00132709 	0.0395538 	7.82409e-40 -0.00157578 	0.0380828 	1.66312e-39 -0.00181847 	0.0365148 	2.53354e-39 -0.0014975 	0.0380406 	1.57787e-39 -0.00118321 	0.0397042 	6.31248e-40 -0.00115195 	0.0399764 	-3.96445e-37 -0.00140384 	0.0383918 	-9.75624e-37 -0.00165009 	0.0367025 	-1.54851e-36 -0.00134717 	0.0383523 	-9.2585e-37 -0.00105039 	0.0401417 	-3.08804e-37 -0.00103859 	0.0402529 	0 -0.00130549 	0.0385586 	0 -0.00156657 	0.0367468 	0 -0.00128073 	0.0385173 	0 -0.00100082 	0.0404301 	0 -0.00100576 	0.0403872 	0 -0.00130845 	0.0385745 	0 -0.00160414 	0.0366206 	0 -0.00133343 	0.0385259 	0 -0.00106912 	0.0405801 	0 -0.00107695 	0.0403394 	0 -0.00144802 	0.0383732 	0 -0.00180881 	0.0362216 	0 -0.00155298 	0.0383133 	0 -0.00130513 	0.0405679 	0 -0.00128148 	0.0399579 	0 -0.00175773 	0.0377748 	0 -0.00222488 	0.0353018 	0 -0.00199139 	0.0377085 	0 -0.00180383 	0.0395429 	0 -0.00175774 	0.0385326 	0 -0.00221847 	0.0362615 	0 -0.0028366 	0.0332202 	0 -0.00265331 	0.03623 	0 -0.00250939 	0.0369992 	0 -0.00239393 	0.0352969 	0 -0.00262644 	0.0328232 	0 -0.00341842 	0.0287684 	0 -0.00335711 	0.0329977 	0 -0.00309106 	0.0309475 	0 -0.00279353 	0.0279686 	0 -0.00249599 	0.0249896 	0 -0.00318214 	0.0195876 	0 -0.00308379 	0.0222144 	0 -0.00242272 	0.0174523 	0 -0.00176164 	0.0126902 	0 -0.00110057 	0.00792803 	0 -0.000162682 	0.00078162 	0 -0.000171523 	0.000995388 	0 -0.000135787 	0.000788005 	0 -0.000100051 	0.000580622 	0 -6.43157e-05 	0.000373239 	0 0 	0 	0
-0.0430649 	4.29561e-05 	0 -0.0430338 	0.000255059 	-2.01948e-23 -0.0429518 	0.000488249 	-4.61188e-23 -0.0428905 	0.000721949 	-7.21817e-23 -0.04285 	0.000956154 	-9.83835e-23 -0.0427855 	0.00118084 	-1.24973e-22 -0.0426383 	0.0013766 	-1.53847e-22 -0.0424532 	0.00159546 	-1.54236e-22 -0.0422879 	0.00181584 	-1.53834e-22 -0.0421427 	0.00203776 	-1.52631e-22 -0.042092 	0.00212833 	-1.51816e-22 -0.0420792 	0.00215523 	-1.52096e-22 -0.0420667 	0.00218216 	-1.52371e-22 -0.0420546 	0.0022091 	-1.52641e-22 -0.0420427 	0.00223607 	-1.52907e-22 -0.0420217 	0.00226767 	-1.53965e-22 -0.0417445 	0.0024753 	-1.26096e-22 -0.0414831 	0.00268449 	-9.82038e-23 -0.0412422 	0.00289635 	-7.01249e-23 -0.041022 	0.00311092 	-4.18568e-23 -0.0407095 	0.00338722 	-1.88941e-23 -0.0403959 	0.00358365 	-4.16853e-24 -0.040073 	0.00378728 	4.34193e-24 -0.0397707 	0.00399463 	1.30712e-23 -0.0394895 	0.00420576 	2.20238e-23 -0.038966 	0.00456673 	1.71685e-23 -0.0386052 	0.00472352 	2.10422e-22 -0.0382443 	0.00492835 	2.53875e-22 -0.0379047 	0.00513809 	2.98617e-22 -0.0374871 	0.00541193 	2.73988e-22 -0.0368455 	0.00584231 	7.40626e-23 -0.0364264 	0.00597558 	4.75063e-23 -0.0360313 	0.0061324 	3.02385e-23 -0.0356789 	0.00635284 	4.22568e-23 -0.0350259 	0.006785 	7.48175e-23 -0.0343983 	0.00724372 	1.07662e-22 -0.0339535 	0.00737512 	5.86377e-23 -0.0335265 	0.00751329 	9.41123e-24 -0.0328664 	0.00782942 	7.4866e-26 -0.032253 	0.00829614 	1.66978e-23 -0.031673 	0.00879137 	3.31657e-23 -0.0312357 	0.00894036 	5.12273e-24 -0.0305881 	0.00926375 	0 -0.029926 	0.00964297 	0 -0.0293064 	0.0100441 	0 -0.0287447 	0.0104582 	0 -0.028738 	0.0104643 	0 -0.0287313 	0.0104704 	0 -0.0287247 	0.0104764 	0 -0.0287168 	0.0104832 	0 -0.0287065 	0.0104912 	0 -0.028045 	0.0108884 	0 -0.0274298 	0.0113153 	0 -0.0268596 	0.0117704 	0 -0.0262369 	0.0123025 	0 -0.0254541 	0.0129979 	0 -0.0248159 	0.0133919 	0 -0.0242101 	0.0138285 	0 -0.0234657 	0.0143765 	0 -0.0227884 	0.0149728 	0 -0.0220907 	0.015716 	0 -0.02209 	0.0157167 	0 -0.0220893 	0.0157174 	0 -0.0220884 	0.0157181 	0 -0.0220874 	0.0157189 	0 -0.0220865 	0.0157196 	0 -0.0213226 	0.016348 	0 -0.0206268 	0.0170399 	0 -0.0199866 	0.0177911 	-4.18616e-26 -0.0192732 	0.0185597 	-4.93455e-25 -0.0184368 	0.0196582 	-1.0883e-24 -0.0183436 	0.0197825 	-1.09099e-24 -0.0182524 	0.0199089 	-1.09416e-24 -0.0181578 	0.0200276 	-7.29871e-24 -0.0180574 	0.0201349 	-2.20842e-23 -0.0179641 	0.0202386 	-3.611e-23 -0.0171847 	0.0210786 	-3.26972e-23 -0.0164846 	0.0220088 	-2.58856e-23 -0.0158298 	0.0228711 	-5.3088e-23 -0.0152559 	0.023741 	-1.09864e-22 -0.0148545 	0.024636 	-1.87033e-22 -0.0147615 	0.0248307 	-2.50785e-22 -0.01467 	0.0250215 	-2.99908e-22 -0.0145774 	0.0251695 	-2.37888e-22 -0.0144866 	0.0253193 	-1.76281e-22 -0.0143882 	0.0254866 	-1.08818e-22 -0.0139351 	0.026209 	2.54653e-22 -0.0135247 	0.0269849 	6.05732e-22 -0.0131553 	0.0278114 	9.4479e-22 -0.0129134 	0.0284054 	6.49569e-22 -0.012745 	0.0288874 	2.28752e-22 -0.0120971 	0.0299614 	-1.30262e-22 -0.0115034 	0.0311193 	-4.94124e-22 -0.0111277 	0.0318139 	-9.26711e-23 -0.0108919 	0.0325829 	6.54236e-22 -0.0107978 	0.0333307 	1.6265e-21 -0.0104527 	0.0341759 	2.27133e-21 -0.010217 	0.0347445 	2.03533e-21 -0.0100193 	0.0352453 	1.55267e-21 -0.00983108 	0.035764 	1.08011e-21 -0.00957132 	0.0365418 	4.08365e-22 -0.0094803 	0.036845 	3.06017e-22 -0.00939184 	0.0371532 	2.03931e-22 -0.00930588 	0.0374663 	1.02104e-22 -0.00922574 	0.0377781 	2.85697e-24 -0.00929086 	0.0378319 	3.02797e-24 -0.00877863 	0.038759 	-8.40074e-23 -0.00850691 	0.039747 	-2.94037e-22 -0.00825717 	0.040782 	-5.0799e-22 -0.00816151 	0.0415892 	-7.2534e-22 -0.00840032 	0.0417429 	-9.37389e-22 -0.00772605 	0.0429061 	-6.13869e-22 -0.00712943 	0.044151 	-1.60116e-22 -0.00695127 	0.0453028 	1.24487e-21 -0.00724598 	0.0454647 	2.36707e-21 -0.00752399 	0.0455924 	3.45112e-21 -0.00684535 	0.0469839 	1.91939e-21 -0.00619362 	0.0484787 	4.08654e-22 -0.00603356 	0.049106 	6.5459e-25 -0.00635732 	0.0492292 	3.63791e-24 -0.00666512 	0.0493131 	6.5404e-24 -0.00598712 	0.050925 	2.70235e-24 -0.00548689 	0.0522394 	0 -0.00537918 	0.0526334 	0 -0.00550993 	0.0528441 	-2.99864e-21 -0.00583689 	0.0528639 	-8.50552e-21 -0.00516511 	0.0546813 	-1.61245e-21 -0.00492761 	0.055423 	0 -0.00482344 	0.055842 	0 -0.00472192 	0.0562819 	0 -0.00505611 	0.0562187 	-1.07915e-23 -0.00448899 	0.0579336 	0 -0.00438703 	0.0583476 	0 -0.00428744 	0.0587829 	0 -0.00419015 	0.059239 	0 -0.00433595 	0.0593345 	2.53881e-21 -0.00397443 	0.0605615 	3.30197e-37 -0.00387994 	0.0609842 	9.66472e-37 -0.00378744 	0.0614273 	1.60163e-36 -0.00369687 	0.0618904 	2.2357e-36 -0.00369602 	0.0621987 	2.98391e-36 -0.00354304 	0.0628083 	3.24579e-36 -0.00348837 	0.0630847 	2.69703e-36 -0.0034344 	0.0633692 	2.15129e-36 -0.00338111 	0.0636618 	1.60856e-36 -0.00331006 	0.0640677 	8.79626e-37 -0.00328699 	0.0642069 	6.95541e-37 -0.00326406 	0.0643476 	5.11535e-37 -0.00324125 	0.0644898 	3.27607e-37 -0.00321857 	0.0646335 	1.43755e-37 -0.00321835 	0.0646242 	4.48389e-39 -0.00313381 	0.06512 	-5.18278e-37 -0.00307092 	0.0655481 	-1.08648e-36 -0.00300921 	0.0659915 	-1.65547e-36 -0.00294864 	0.0664499 	-2.22523e-36 -0.00297844 	0.0662487 	-2.79509e-36 -0.00285851 	0.0670567 	-2.17243e-36 -0.00282833 	0.0674916 	-1.55109e-36 -0.00279881 	0.0679358 	-9.30167e-37 -0.00276995 	0.068389 	-3.09645e-37 -0.00288453 	0.0676618 	0 -0.00273853 	0.068816 	0 -0.00276186 	0.0692749 	0 -0.00278511 	0.0697329 	0 -0.0028083 	0.0701898 	0 -0.00301815 	0.0689008 	0 -0.0028394 	0.0704546 	0 -0.00294911 	0.0709717 	0 -0.00305744 	0.0714704 	0 -0.00316441 	0.0719512 	0 -0.00349426 	0.0699728 	0 -0.00324625 	0.0720404 	0 -0.00349357 	0.0726745 	0 -0.00373669 	0.0732616 	0 -0.00400329 	0.0734207 	0 -0.00446185 	0.0707955 	0 -0.00422836 	0.0732022 	0 -0.00450599 	0.0744509 	0 -0.00495739 	0.0752078 	0 -0.00546733 	0.0743322 	0 -0.00606535 	0.0710329 	0 -0.00588206 	0.0740427 	0 -0.00604407 	0.0764319 	0 -0.00680398 	0.0775045 	0 -0.00756882 	0.0744473 	0 -0.0083044 	0.0698872 	0 -0.00824308 	0.0741166 	0 -0.00820236 	0.0785233 	0 -0.00907569 	0.0787664 	0 -0.00990631 	0.0724099 	0 -0.0106417 	0.0655048 	0 -0.0108519 	0.0722563 	0 -0.0111154 	0.0793457 	0 -0.0105679 	0.0756923 	0 -0.0110366 	0.0654109 	0 -0.0113095 	0.0543373 	0 -0.0120336 	0.0664962 	0 -0.0115152 	0.0668252 	0 -0.0100076 	0.0580763 	0 -0.00849998 	0.0493274 	0 -0.00720382 	0.0312637 	0 -0.00791004 	0.0462497 	0 -0.00642534 	0.0375687 	0 -0.00494064 	0.0288877 	0 -0.00345593 	0.0202067 	0 0 	0 	0