<?xml version="1.0"?>
<VTKFile type="UnstructuredGrid"  version="0.1"  >
<UnstructuredGrid>
<Piece  NumberOfPoints="2601" NumberOfCells="5000">
<Points>
<DataArray  type="Float64"  NumberOfComponents="3"  format="ascii">0 0 0  0.02 0 0  0.04 0 0  0.06 0 0  0.08 0 0  0.1 0 0  0.12 0 0  0.14 0 0  0.16 0 0  0.18 0 0  0.2 0 0  0.22 0 0  0.24 0 0  0.26 0 0  0.28 0 0  0.3 0 0  0.32 0 0  0.34 0 0  0.36 0 0  0.38 0 0  0.4 0 0  0.42 0 0  0.44 0 0  0.46 0 0  0.48 0 0  0.5 0 0  0.52 0 0  0.54 0 0  0.5600000000000001 0 0  0.58 0 0  0.6 0 0  0.62 0 0  0.64 0 0  0.66 0 0  0.68 0 0  0.7 0 0  0.72 0 0  0.74 0 0  0.76 0 0  0.78 0 0  0.8 0 0  0.82 0 0  0.84 0 0  0.86 0 0  0.88 0 0  0.9 0 0  0.92 0 0  0.9399999999999999 0 0  0.96 0 0  0.98 0 0  1 0 0  0 0.02 0  0.02 0.02 0  0.04 0.02 0  0.06 0.02 0  0.08 0.02 0  0.1 0.02 0  0.12 0.02 0  0.14 0.02 0  0.16 0.02 0  0.18 0.02 0  0.2 0.02 0  0.22 0.02 0  0.24 0.02 0  0.26 0.02 0  0.28 0.02 0  0.3 0.02 0  0.32 0.02 0  0.34 0.02 0  0.36 0.02 0  0.38 0.02 0  0.4 0.02 0  0.42 0.02 0  0.44 0.02 0  0.46 0.02 0  0.48 0.02 0  0.5 0.02 0  0.52 0.02 0  0.54 0.02 0  0.5600000000000001 0.02 0  0.58 0.02 0  0.6 0.02 0  0.62 0.02 0  0.64 0.02 0  0.66 0.02 0  0.68 0.02 0  0.7 0.02 0  0.72 0.02 0  0.74 0.02 0  0.76 0.02 0  0.78 0.02 0  0.8 0.02 0  0.82 0.02 0  0.84 0.02 0  0.86 0.02 0  0.88 0.02 0  0.9 0.02 0  0.92 0.02 0  0.9399999999999999 0.02 0  0.96 0.02 0  0.98 0.02 0  1 0.02 0  0 0.04 0  0.02 0.04 0  0.04 0.04 0  0.06 0.04 0  0.08 0.04 0  0.1 0.04 0  0.12 0.04 0  0.14 0.04 0  0.16 0.04 0  0.18 0.04 0  0.2 0.04 0  0.22 0.04 0  0.24 0.04 0  0.26 0.04 0  0.28 0.04 0  0.3 0.04 0  0.32 0.04 0  0.34 0.04 0  0.36 0.04 0  0.38 0.04 0  0.4 0.04 0  0.42 0.04 0  0.44 0.04 0  0.46 0.04 0  0.48 0.04 0  0.5 0.04 0  0.52 0.04 0  0.54 0.04 0  0.5600000000000001 0.04 0  0.58 0.04 0  0.6 0.04 0  0.62 0.04 0  0.64 0.04 0  0.66 0.04 0  0.68 0.04 0  0.7 0.04 0  0.72 0.04 0  0.74 0.04 0  0.76 0.04 0  0.78 0.04 0  0.8 0.04 0  0.82 0.04 0  0.84 0.04 0  0.86 0.04 0  0.88 0.04 0  0.9 0.04 0  0.92 0.04 0  0.9399999999999999 0.04 0  0.96 0.04 0  0.98 0.04 0  1 0.04 0  0 0.06 0  0.02 0.06 0  0.04 0.06 0  0.06 0.06 0  0.08 0.06 0  0.1 0.06 0  0.12 0.06 0  0.14 0.06 0  0.16 0.06 0  0.18 0.06 0  0.2 0.06 0  0.22 0.06 0  0.24 0.06 0  0.26 0.06 0  0.28 0.06 0  0.3 0.06 0  0.32 0.06 0  0.34 0.06 0  0.36 0.06 0  0.38 0.06 0  0.4 0.06 0  0.42 0.06 0  0.44 0.06 0  0.46 0.06 0  0.48 0.06 0  0.5 0.06 0  0.52 0.06 0  0.54 0.06 0  0.5600000000000001 0.06 0  0.58 0.06 0  0.6 0.06 0  0.62 0.06 0  0.64 0.06 0  0.66 0.06 0  0.68 0.06 0  0.7 0.06 0  0.72 0.06 0  0.74 0.06 0  0.76 0.06 0  0.78 0.06 0  0.8 0.06 0  0.82 0.06 0  0.84 0.06 0  0.86 0.06 0  0.88 0.06 0  0.9 0.06 0  0.92 0.06 0  0.9399999999999999 0.06 0  0.96 0.06 0  0.98 0.06 0  1 0.06 0  0 0.08 0  0.02 0.08 0  0.04 0.08 0  0.06 0.08 0  0.08 0.08 0  0.1 0.08 0  0.12 0.08 0  0.14 0.08 0  0.16 0.08 0  0.18 0.08 0  0.2 0.08 0  0.22 0.08 0  0.24 0.08 0  0.26 0.08 0  0.28 0.08 0  0.3 0.08 0  0.32 0.08 0  0.34 0.08 0  0.36 0.08 0  0.38 0.08 0  0.4 0.08 0  0.42 0.08 0  0.44 0.08 0  0.46 0.08 0  0.48 0.08 0  0.5 0.08 0  0.52 0.08 0  0.54 0.08 0  0.5600000000000001 0.08 0  0.58 0.08 0  0.6 0.08 0  0.62 0.08 0  0.64 0.08 0  0.66 0.08 0  0.68 0.08 0  0.7 0.08 0  0.72 0.08 0  0.74 0.08 0  0.76 0.08 0  0.78 0.08 0  0.8 0.08 0  0.82 0.08 0  0.84 0.08 0  0.86 0.08 0  0.88 0.08 0  0.9 0.08 0  0.92 0.08 0  0.9399999999999999 0.08 0  0.96 0.08 0  0.98 0.08 0  1 0.08 0  0 0.1 0  0.02 0.1 0  0.04 0.1 0  0.06 0.1 0  0.08 0.1 0  0.1 0.1 0  0.12 0.1 0  0.14 0.1 0  0.16 0.1 0  0.18 0.1 0  0.2 0.1 0  0.22 0.1 0  0.24 0.1 0  0.26 0.1 0  0.28 0.1 0  0.3 0.1 0  0.32 0.1 0  0.34 0.1 0  0.36 0.1 0  0.38 0.1 0  0.4 0.1 0  0.42 0.1 0  0.44 0.1 0  0.46 0.1 0  0.48 0.1 0  0.5 0.1 0  0.52 0.1 0  0.54 0.1 0  0.5600000000000001 0.1 0  0.58 0.1 0  0.6 0.1 0  0.62 0.1 0  0.64 0.1 0  0.66 0.1 0  0.68 0.1 0  0.7 0.1 0  0.72 0.1 0  0.74 0.1 0  0.76 0.1 0  0.78 0.1 0  0.8 0.1 0  0.82 0.1 0  0.84 0.1 0  0.86 0.1 0  0.88 0.1 0  0.9 0.1 0  0.92 0.1 0  0.9399999999999999 0.1 0  0.96 0.1 0  0.98 0.1 0  1 0.1 0  0 0.12 0  0.02 0.12 0  0.04 0.12 0  0.06 0.12 0  0.08 0.12 0  0.1 0.12 0  0.12 0.12 0  0.14 0.12 0  0.16 0.12 0  0.18 0.12 0  0.2 0.12 0  0.22 0.12 0  0.24 0.12 0  0.26 0.12 0  0.28 0.12 0  0.3 0.12 0  0.32 0.12 0  0.34 0.12 0  0.36 0.12 0  0.38 0.12 0  0.4 0.12 0  0.42 0.12 0  0.44 0.12 0  0.46 0.12 0  0.48 0.12 0  0.5 0.12 0  0.52 0.12 0  0.54 0.12 0  0.5600000000000001 0.12 0  0.58 0.12 0  0.6 0.12 0  0.62 0.12 0  0.64 0.12 0  0.66 0.12 0  0.68 0.12 0  0.7 0.12 0  0.72 0.12 0  0.74 0.12 0  0.76 0.12 0  0.78 0.12 0  0.8 0.12 0  0.82 0.12 0  0.84 0.12 0  0.86 0.12 0  0.88 0.12 0  0.9 0.12 0  0.92 0.12 0  0.9399999999999999 0.12 0  0.96 0.12 0  0.98 0.12 0  1 0.12 0  0 0.14 0  0.02 0.14 0  0.04 0.14 0  0.06 0.14 0  0.08 0.14 0  0.1 0.14 0  0.12 0.14 0  0.14 0.14 0  0.16 0.14 0  0.18 0.14 0  0.2 0.14 0  0.22 0.14 0  0.24 0.14 0  0.26 0.14 0  0.28 0.14 0  0.3 0.14 0  0.32 0.14 0  0.34 0.14 0  0.36 0.14 0  0.38 0.14 0  0.4 0.14 0  0.42 0.14 0  0.44 0.14 0  0.46 0.14 0  0.48 0.14 0  0.5 0.14 0  0.52 0.14 0  0.54 0.14 0  0.5600000000000001 0.14 0  0.58 0.14 0  0.6 0.14 0  0.62 0.14 0  0.64 0.14 0  0.66 0.14 0  0.68 0.14 0  0.7 0.14 0  0.72 0.14 0  0.74 0.14 0  0.76 0.14 0  0.78 0.14 0  0.8 0.14 0  0.82 0.14 0  0.84 0.14 0  0.86 0.14 0  0.88 0.14 0  0.9 0.14 0  0.92 0.14 0  0.9399999999999999 0.14 0  0.96 0.14 0  0.98 0.14 0  1 0.14 0  0 0.16 0  0.02 0.16 0  0.04 0.16 0  0.06 0.16 0  0.08 0.16 0  0.1 0.16 0  0.12 0.16 0  0.14 0.16 0  0.16 0.16 0  0.18 0.16 0  0.2 0.16 0  0.22 0.16 0  0.24 0.16 0  0.26 0.16 0  0.28 0.16 0  0.3 0.16 0  0.32 0.16 0  0.34 0.16 0  0.36 0.16 0  0.38 0.16 0  0.4 0.16 0  0.42 0.16 0  0.44 0.16 0  0.46 0.16 0  0.48 0.16 0  0.5 0.16 0  0.52 0.16 0  0.54 0.16 0  0.5600000000000001 0.16 0  0.58 0.16 0  0.6 0.16 0  0.62 0.16 0  0.64 0.16 0  0.66 0.16 0  0.68 0.16 0  0.7 0.16 0  0.72 0.16 0  0.74 0.16 0  0.76 0.16 0  0.78 0.16 0  0.8 0.16 0  0.82 0.16 0  0.84 0.16 0  0.86 0.16 0  0.88 0.16 0  0.9 0.16 0  0.92 0.16 0  0.9399999999999999 0.16 0  0.96 0.16 0  0.98 0.16 0  1 0.16 0  0 0.18 0  0.02 0.18 0  0.04 0.18 0  0.06 0.18 0  0.08 0.18 0  0.1 0.18 0  0.12 0.18 0  0.14 0.18 0  0.16 0.18 0  0.18 0.18 0  0.2 0.18 0  0.22 0.18 0  0.24 0.18 0  0.26 0.18 0  0.28 0.18 0  0.3 0.18 0  0.32 0.18 0  0.34 0.18 0  0.36 0.18 0  0.38 0.18 0  0.4 0.18 0  0.42 0.18 0  0.44 0.18 0  0.46 0.18 0  0.48 0.18 0  0.5 0.18 0  0.52 0.18 0  0.54 0.18 0  0.5600000000000001 0.18 0  0.58 0.18 0  0.6 0.18 0  0.62 0.18 0  0.64 0.18 0  0.66 0.18 0  0.68 0.18 0  0.7 0.18 0  0.72 0.18 0  0.74 0.18 0  0.76 0.18 0  0.78 0.18 0  0.8 0.18 0  0.82 0.18 0  0.84 0.18 0  0.86 0.18 0  0.88 0.18 0  0.9 0.18 0  0.92 0.18 0  0.9399999999999999 0.18 0  0.96 0.18 0  0.98 0.18 0  1 0.18 0  0 0.2 0  0.02 0.2 0  0.04 0.2 0  0.06 0.2 0  0.08 0.2 0  0.1 0.2 0  0.12 0.2 0  0.14 0.2 0  0.16 0.2 0  0.18 0.2 0  0.2 0.2 0  0.22 0.2 0  0.24 0.2 0  0.26 0.2 0  0.28 0.2 0  0.3 0.2 0  0.32 0.2 0  0.34 0.2 0  0.36 0.2 0  0.38 0.2 0  0.4 0.2 0  0.42 0.2 0  0.44 0.2 0  0.46 0.2 0  0.48 0.2 0  0.5 0.2 0  0.52 0.2 0  0.54 0.2 0  0.5600000000000001 0.2 0  0.58 0.2 0  0.6 0.2 0  0.62 0.2 0  0.64 0.2 0  0.66 0.2 0  0.68 0.2 0  0.7 0.2 0  0.72 0.2 0  0.74 0.2 0  0.76 0.2 0  0.78 0.2 0  0.8 0.2 0  0.82 0.2 0  0.84 0.2 0  0.86 0.2 0  0.88 0.2 0  0.9 0.2 0  0.92 0.2 0  0.9399999999999999 0.2 0  0.96 0.2 0  0.98 0.2 0  1 0.2 0  0 0.22 0  0.02 0.22 0  0.04 0.22 0  0.06 0.22 0  0.08 0.22 0  0.1 0.22 0  0.12 0.22 0  0.14 0.22 0  0.16 0.22 0  0.18 0.22 0  0.2 0.22 0  0.22 0.22 0  0.24 0.22 0  0.26 0.22 0  0.28 0.22 0  0.3 0.22 0  0.32 0.22 0  0.34 0.22 0  0.36 0.22 0  0.38 0.22 0  0.4 0.22 0  0.42 0.22 0  0.44 0.22 0  0.46 0.22 0  0.48 0.22 0  0.5 0.22 0  0.52 0.22 0  0.54 0.22 0  0.5600000000000001 0.22 0  0.58 0.22 0  0.6 0.22 0  0.62 0.22 0  0.64 0.22 0  0.66 0.22 0  0.68 0.22 0  0.7 0.22 0  0.72 0.22 0  0.74 0.22 0  0.76 0.22 0  0.78 0.22 0  0.8 0.22 0  0.82 0.22 0  0.84 0.22 0  0.86 0.22 0  0.88 0.22 0  0.9 0.22 0  0.92 0.22 0  0.9399999999999999 0.22 0  0.96 0.22 0  0.98 0.22 0  1 0.22 0  0 0.24 0  0.02 0.24 0  0.04 0.24 0  0.06 0.24 0  0.08 0.24 0  0.1 0.24 0  0.12 0.24 0  0.14 0.24 0  0.16 0.24 0  0.18 0.24 0  0.2 0.24 0  0.22 0.24 0  0.24 0.24 0  0.26 0.24 0  0.28 0.24 0  0.3 0.24 0  0.32 0.24 0  0.34 0.24 0  0.36 0.24 0  0.38 0.24 0  0.4 0.24 0  0.42 0.24 0  0.44 0.24 0  0.46 0.24 0  0.48 0.24 0  0.5 0.24 0  0.52 0.24 0  0.54 0.24 0  0.5600000000000001 0.24 0  0.58 0.24 0  0.6 0.24 0  0.62 0.24 0  0.64 0.24 0  0.66 0.24 0  0.68 0.24 0  0.7 0.24 0  0.72 0.24 0  0.74 0.24 0  0.76 0.24 0  0.78 0.24 0  0.8 0.24 0  0.82 0.24 0  0.84 0.24 0  0.86 0.24 0  0.88 0.24 0  0.9 0.24 0  0.92 0.24 0  0.9399999999999999 0.24 0  0.96 0.24 0  0.98 0.24 0  1 0.24 0  0 0.26 0  0.02 0.26 0  0.04 0.26 0  0.06 0.26 0  0.08 0.26 0  0.1 0.26 0  0.12 0.26 0  0.14 0.26 0  0.16 0.26 0  0.18 0.26 0  0.2 0.26 0  0.22 0.26 0  0.24 0.26 0  0.26 0.26 0  0.28 0.26 0  0.3 0.26 0  0.32 0.26 0  0.34 0.26 0  0.36 0.26 0  0.38 0.26 0  0.4 0.26 0  0.42 0.26 0  0.44 0.26 0  0.46 0.26 0  0.48 0.26 0  0.5 0.26 0  0.52 0.26 0  0.54 0.26 0  0.5600000000000001 0.26 0  0.58 0.26 0  0.6 0.26 0  0.62 0.26 0  0.64 0.26 0  0.66 0.26 0  0.68 0.26 0  0.7 0.26 0  0.72 0.26 0  0.74 0.26 0  0.76 0.26 0  0.78 0.26 0  0.8 0.26 0  0.82 0.26 0  0.84 0.26 0  0.86 0.26 0  0.88 0.26 0  0.9 0.26 0  0.92 0.26 0  0.9399999999999999 0.26 0  0.96 0.26 0  0.98 0.26 0  1 0.26 0  0 0.28 0  0.02 0.28 0  0.04 0.28 0  0.06 0.28 0  0.08 0.28 0  0.1 0.28 0  0.12 0.28 0  0.14 0.28 0  0.16 0.28 0  0.18 0.28 0  0.2 0.28 0  0.22 0.28 0  0.24 0.28 0  0.26 0.28 0  0.28 0.28 0  0.3 0.28 0  0.32 0.28 0  0.34 0.28 0  0.36 0.28 0  0.38 0.28 0  0.4 0.28 0  0.42 0.28 0  0.44 0.28 0  0.46 0.28 0  0.48 0.28 0  0.5 0.28 0  0.52 0.28 0  0.54 0.28 0  0.5600000000000001 0.28 0  0.58 0.28 0  0.6 0.28 0  0.62 0.28 0  0.64 0.28 0  0.66 0.28 0  0.68 0.28 0  0.7 0.28 0  0.72 0.28 0  0.74 0.28 0  0.76 0.28 0  0.78 0.28 0  0.8 0.28 0  0.82 0.28 0  0.84 0.28 0  0.86 0.28
[...]
<PointData  Vectors="f_146"> 
<DataArray  type="Float64"  Name="f_146"  NumberOfComponents="3" format="ascii">-7.0203910359028798e-01 -1.7776851188596675e-05 0.0000000000000000e+00  -7.0204438877183817e-01 1.3637089711132140e-04 0.0000000000000000e+00  -7.0199931499612145e-01 2.4207683852084594e-04 0.0000000000000000e+00  -7.0196052071837334e-01 3.5118076778365207e-04 0.0000000000000000e+00  -7.0193927051819827e-01 4.6073671715892329e-04 0.0000000000000000e+00  -7.0195255966585846e-01 5.7183082047873861e-04 0.0000000000000000e+00  -7.0202272384713804e-01 6.8521415027445625e-04 0.0000000000000000e+00  -7.0217540790622868e-01 8.0145825637901872e-04 0.0000000000000000e+00  -7.0243970933708766e-01 9.2115657304878997e-04 0.0000000000000000e+00  -7.0284811821085691e-01 1.0449124175481775e-03 0.0000000000000000e+00  -7.0343652298839188e-01 1.1733539477019285e-03 0.0000000000000000e+00  -7.0424424510266881e-01 1.3071418379297648e-03 0.0000000000000000e+00  -7.0531409175548787e-01 1.4469760837092437e-03 0.0000000000000000e+00  -7.0669242879063021e-01 1.5936031108843920e-03 0.0000000000000000e+00  -7.0842927542343126e-01 1.7478234842781470e-03 0.0000000000000000e+00  -7.1057842425983442e-01 1.9105006011418567e-03 0.0000000000000000e+00  -7.1319759109134029e-01 2.0825706816486374e-03 0.0000000000000000e+00  -7.1634860003164502e-01 2.2650544019283160e-03 0.0000000000000000e+00  -7.2009761080166790e-01 2.4590705741794738e-03 0.0000000000000000e+00  -7.2451539647160368e-01 2.6658523712557022e-03 0.0000000000000000e+00  -7.2967768184060000e-01 2.8867667176922544e-03 0.0000000000000000e+00  -7.3566555500630360e-01 3.1233376372172728e-03 0.0000000000000000e+00  -7.4256596771371197e-01 3.3772745699003808e-03 0.0000000000000000e+00  -7.5047234400137341e-01 3.6505069731800422e-03 0.0000000000000000e+00  -7.5948532178465711e-01 3.9452269248208081e-03 0.0000000000000000e+00  -7.6971365875774622e-01 4.2639419985153392e-03 0.0000000000000000e+00  -7.8127534295310685e-01 4.6095414439030020e-03 0.0000000000000000e+00  -7.9429896032225800e-01 4.9853797639568247e-03 0.0000000000000000e+00  -8.0892538802458014e-01 5.3953832828192039e-03 0.0000000000000000e+00  -8.2530990454301156e-01 5.8441874478077751e-03 0.0000000000000000e+00  -8.4362483898217022e-01 6.3373157404372858e-03 0.0000000000000000e+00  -8.6406292603677914e-01 6.8814157081293582e-03 0.0000000000000000e+00  -8.8684159649407834e-01 7.4845746244460417e-03 0.0000000000000000e+00  -9.1220852566198596e-01 8.1567480614025845e-03 0.0000000000000000e+00  -9.4044890023245165e-01 8.9103516372265323e-03 0.0000000000000000e+00  -9.7189507324209534e-01 9.7610936520467310e-03 0.0000000000000000e+00  -1.0069396073231245e+00 1.0729172040213628e-02 0.0000000000000000e+00  -1.0460532183986517e+00 1.1841037435608177e-02 0.0000000000000000e+00  -1.0898100501928556e+00 1.3132065913365144e-02 0.0000000000000000e+00  -1.1389239892714302e+00 1.4650744921757421e-02 0.0000000000000000e+00  -1.1943031965486641e+00 1.6465498341054756e-02 0.0000000000000000e+00  -1.2571318362640580e+00 1.8676498607942956e-02 0.0000000000000000e+00  -1.3290103192418745e+00 2.1436873530040913e-02 0.0000000000000000e+00  -1.4121555343304364e+00 2.4996595757350616e-02 0.0000000000000000e+00  -1.5099474620898596e+00 2.9815834005777943e-02 0.0000000000000000e+00  -1.6270695754736348e+00 3.6737681645402843e-02 0.0000000000000000e+00  -1.7749232843287557e+00 4.8608178869691682e-02 0.0000000000000000e+00  -1.9607739882268724e+00 7.2244570174965037e-02 0.0000000000000000e+00  -2.2625655890535521e+00 1.3587958495863722e-01 0.0000000000000000e+00  -2.7640638473146377e+00 4.5901972241988431e-01 0.0000000000000000e+00  -3.5831950812572546e+00 1.3367957531630210e+00 0.0000000000000000e+00  -7.0175503882575174e-01 6.3116558393504451e-06 0.0000000000000000e+00  -7.0186613868620507e-01 3.7565668071273513e-04 0.0000000000000000e+00  -7.0180656235613137e-01 7.2045014341978102e-04 0.0000000000000000e+00  -7.0177178640921245e-01 1.0715024253228778e-03 0.0000000000000000e+00  -7.0174811963241157e-01 1.4235729083020223e-03 0.0000000000000000e+00  -7.0175805030279248e-01 1.7815751525305707e-03 0.0000000000000000e+00  -7.0182379827757846e-01 2.1471644151162712e-03 0.0000000000000000e+00  -7.0197103371122482e-01 2.5222398592794166e-03 0.0000000000000000e+00  -7.0222886385647598e-01 2.9086705215346127e-03 0.0000000000000000e+00  -7.0262974188599625e-01 3.3083701239073407e-03 0.0000000000000000e+00  -7.0320950771517488e-01 3.7233347866571275e-03 0.0000000000000000e+00  -7.0400742149669226e-01 4.1556642962104432e-03 0.0000000000000000e+00  -7.0506621717377027e-01 4.6075843239394027e-03 0.0000000000000000e+00  -7.0643217471587438e-01 5.0814689712173787e-03 0.0000000000000000e+00  -7.0815521344891919e-01 5.5798654741276458e-03 0.0000000000000000e+00  -7.1028901014753143e-01 6.1055220910496187e-03 0.0000000000000000e+00  -7.1289114634051187e-01 6.6614201556604918e-03 0.0000000000000000e+00  -7.1602329032559697e-01 7.2508113900419391e-03 0.0000000000000000e+00  -7.1975142057234687e-01 7.8772617687138669e-03 0.0000000000000000e+00  -7.2414609864021595e-01 8.5447035195547159e-03 0.0000000000000000e+00  -7.2928280154708769e-01 9.2574972483001304e-03 0.0000000000000000e+00  -7.3524232581434823e-01 1.0020506709338645e-02 0.0000000000000000e+00  -7.4211127834124102e-01 1.0839189458837604e-02 0.0000000000000000e+00  -7.4998267304076216e-01 1.1719707582483016e-02 0.0000000000000000e+00  -7.5895665708323390e-01 1.2669063978872715e-02 0.0000000000000000e+00  -7.6914139704300777e-01 1.3695271436161725e-02 0.0000000000000000e+00  -7.8065416378431529e-01 1.4807564157353596e-02 0.0000000000000000e+00  -7.9362266634431444e-01 1.6016664758488459e-02 0.0000000000000000e+00  -8.0818670051089891e-01 1.7335124518850487e-02 0.0000000000000000e+00  -8.2450019890649839e-01 1.8777761467550794e-02 0.0000000000000000e+00  -8.4273379862866782e-01 2.0362230781157037e-02 0.0000000000000000e+00  -8.6307808354696813e-01 2.2109776581311628e-02 0.0000000000000000e+00  -8.8574771685941589e-01 2.4046236212415955e-02 0.0000000000000000e+00  -9.1098676423256564e-01 2.6203401839798263e-02 0.0000000000000000e+00  -9.3907563286936757e-01 2.8620897195633540e-02 0.0000000000000000e+00  -9.7034023951615522e-01 3.1348812530321450e-02 0.0000000000000000e+00  -1.0051643101206371e+00 3.4451481728009825e-02 0.0000000000000000e+00  -1.0440061646011483e+00 3.8013025870967443e-02 0.0000000000000000e+00  -1.0874220888006834e+00 4.2145711998900853e-02 0.0000000000000000e+00  -1.1360995579647497e+00 4.7002954381952108e-02 0.0000000000000000e+00  -1.1909059151327830e+00 5.2800300208096479e-02 0.0000000000000000e+00  -1.2529608311512601e+00 5.9850734408487830e-02 0.0000000000000000e+00  -1.3237516045314954e+00 6.8627276307064333e-02 0.0000000000000000e+00  -1.4053093090685507e+00 7.9881881001577795e-02 0.0000000000000000e+00  -1.5005324901974031e+00 9.4876370393123646e-02 0.0000000000000000e+00  -1.6136544924402390e+00 1.1593002387645085e-01 0.0000000000000000e+00  -1.7514362491950461e+00 1.4762217695105764e-01 0.0000000000000000e+00  -1.9219191092140808e+00 1.9900472793562282e-01 0.0000000000000000e+00  -2.1540900148834865e+00 2.9848271021437622e-01 0.0000000000000000e+00  -2.3624035688506870e+00 4.7013158332560506e-01 0.0000000000000000e+00  -2.8453985954572625e+00 8.6712210992069183e-01 0.0000000000000000e+00  -7.0107984457427119e-01 -1.0154380485560142e-06 0.0000000000000000e+00  -7.0132446012683569e-01 7.4853823996240659e-04 0.0000000000000000e+00  -7.0123671896386397e-01 1.5049501091909611e-03 0.0000000000000000e+00  -7.0120431110405512e-01 2.2669466780556699e-03 0.0000000000000000e+00  -7.0117142556117806e-01 3.0364570155882657e-03 0.0000000000000000e+00  -7.0117067597735860e-01 3.8192398125336275e-03 0.0000000000000000e+00  -7.0122247496955092e-01 4.6186541727045423e-03 0.0000000000000000e+00  -7.0135281187337228e-01 5.4388098879362577e-03 0.0000000000000000e+00  -7.0159070226463605e-01 6.2837025112202037e-03 0.0000000000000000e+00  -7.0196848596132899e-01 7.1574838614672535e-03 0.0000000000000000e+00  -7.0252185308534443e-01 8.0644838001543411e-03 0.0000000000000000e+00  -7.0328987808314969e-01 9.0092586689971173e-03 0.0000000000000000e+00  -7.0431507456341935e-01 9.9966368938781136e-03 0.0000000000000000e+00  -7.0564346453104865e-01 1.1031766731940475e-02 0.0000000000000000e+00  -7.0732466739096111e-01 1.2120169104353994e-02 0.0000000000000000e+00  -7.0941201215621241e-01 1.3267797288047676e-02 0.0000000000000000e+00  -7.1196267725566875e-01 1.4481105520292782e-02 0.0000000000000000e+00  -7.1503786318871587e-01 1.5767128780970703e-02 0.0000000000000000e+00  -7.1870300431042011e-01 1.7133576456383751e-02 0.0000000000000000e+00  -7.2302802732899674e-01 1.8588943209672717e-02 0.0000000000000000e+00  -7.2808766572053918e-01 2.0142641218820374e-02 0.0000000000000000e+00  -7.3396184131660380e-01 2.1805159054984050e-02 0.0000000000000000e+00  -7.4073612692444479e-01 2.3588253948369560e-02 0.0000000000000000e+00  -7.4850230717934585e-01 2.5505186156566710e-02 0.0000000000000000e+00  -7.5735905913252055e-01 2.7571006792623712e-02 0.0000000000000000e+00  -7.6741277967101373e-01 2.9802914054869765e-02 0.0000000000000000e+00  -7.7877859418941853e-01 3.2220697710839658e-02 0.0000000000000000e+00  -7.9158159060126743e-01 3.4847298491674797e-02 0.0000000000000000e+00  -8.0595833565259134e-01 3.7709518596970998e-02 0.0000000000000000e+00  -8.2205874781007726e-01 4.0838933074076871e-02 0.0000000000000000e+00  -8.4004842449460437e-01 4.4273071389616302e-02 0.0000000000000000e+00  -8.6011155366552072e-01 4.8056967140458380e-02 0.0000000000000000e+00  -8.8245458446564295e-01 5.2245216472504130e-02 0.0000000000000000e+00  -9.0731089427995293e-01 5.6904750393972171e-02 0.0000000000000000e+00  -9.3494677848656071e-01 6.2118626096620916e-02 0.0000000000000000e+00  -9.6566921606249867e-01 6.7991300301677493e-02 0.0000000000000000e+00  -9.9983604957756333e-01 7.4656103150504555e-02 0.0000000000000000e+00  -1.0378694801195107e+00 8.2286055363508054e-02 0.0000000000000000e+00  -1.0802741884004841e+00 9.1109895806409158e-02 0.0000000000000000e+00  -1.1276618673278989e+00 1.0143646239482164e-01 0.0000000000000000e+00  -1.1807850531889634e+00 1.1369288772242388e-01 0.0000000000000000e+00  -1.2405827296743639e+00 1.2848641589682380e-01 0.0000000000000000e+00  -1.3082464019390840e+00 1.4670826061485498e-01 0.0000000000000000e+00  -1.3852907409178821e+00 1.6971375056003887e-01 0.0000000000000000e+00  -1.4737006157492627e+00 1.9965129836589424e-01 0.0000000000000000e+00  -1.5757878816861479e+00 2.4007102015949358e-01 0.0000000000000000e+00  -1.6948125519891195e+00 2.9702361651691483e-01 0.0000000000000000e+00  -1.8311131792529549e+00 3.8153352908862692e-01 0.0000000000000000e+00  -1.9888504478855262e+00 5.1131161807820358e-01 0.0000000000000000e+00  -2.1188940347248399e+00 7.1415393276082406e-01 0.0000000000000000e+00  -2.3211373726614628e+00 1.0508196733821595e+00 0.0000000000000000e+00  -7.0004542119202007e-01 3.0195064676105851e-07 0.0000000000000000e+00  -7.0042240033267900e-01 1.1122989651514844e-03 0.0000000000000000e+00  -7.0029434987780725e-01 2.2268810690131073e-03 0.0000000000000000e+00  -7.0026190284304313e-01 3.3489073485689774e-03 0.0000000000000000e+00  -7.0021324873599511e-01 4.4850589274117369e-03 0.0000000000000000e+00  -7.0019450498907065e-01 5.6408128590635090e-03 0.0000000000000000e+00  -7.0022293703741001e-01 6.8215701598110592e-03 0.0000000000000000e+00  -7.0032516187567551e-01 8.0331484995016297e-03 0.0000000000000000e+00  -7.0052991475202464e-01 9.2813641566871392e-03 0.0000000000000000e+00  -7.0086935452785226e-01 1.0572305328969548e-02 0.0000000000000000e+00  -7.0137891340337244e-01 1.1912327547128178e-02 0.0000000000000000e+00  -7.0209735741702850e-01 1.3308126793717160e-02 0.0000000000000000e+00  -7.0306683635061151e-01 1.4766799665121101e-02 0.0000000000000000e+00  -7.0433294756591402e-01 1.6295911515061448e-02 0.0000000000000000e+00  -7.0594481765233619e-01 1.7903572251525328e-02 0.0000000000000000e+00  -7.0795520490543018e-01 1.9598522380804066e-02 0.0000000000000000e+00  -7.1042062693758279e-01 2.1390232001211425e-02 0.0000000000000000e+00  -7.1340151818778141e-01 2.3289015857652699e-02 0.0000000000000000e+00  -7.1696242297299284e-01 2.5306168240311438e-02 0.0000000000000000e+00  -7.2117223079199555e-01 2.7454122391204875e-02 0.0000000000000000e+00  -7.2610446193287836e-01 2.9746640253071572e-02 0.0000000000000000e+00  -7.3183761311469653e-01 3.2199039935146015e-02 0.0000000000000000e+00  -7.3845557500375925e-01 3.4828470300674541e-02 0.0000000000000000e+00  -7.4604813610820664e-01 3.7654244771321704e-02 0.0000000000000000e+00  -7.5471159093083906e-01 4.0698250037111604e-02 0.0000000000000000e+00  -7.6454947455537048e-01 4.3985450198903445e-02 0.0000000000000000e+00  -7.7567345133602672e-01 4.7544513449822766e-02 0.0000000000000000e+00  -7.8820439241399098e-01 5.1408597441080145e-02 0.0000000000000000e+00  -8.0227368587494052e-01 5.5616342033070996e-02 0.0000000000000000e+00  -8.1802483511697821e-01 6.0213135782284766e-02 0.0000000000000000e+00  -8.3561541622330904e-01 6.5252747639471420e-02 0.0000000000000000e+00  -8.5521948484545962e-01 7.0799451585751474e-02 0.0000000000000000e+00  -8.7703054853194040e-01 7.6930824993716063e-02 0.0000000000000000e+00  -9.0126525286884707e-01 8.3741480351898975e-02 0.0000000000000000e+00  -9.2816797041735966e-01 9.1348109070080036e-02 0.0000000000000000e+00  -9.5801652958538597e-01 9.9896398967384406e-02 0.0000000000000000e+00  -9.9112937423631586e-01 1.0957067288393098e-01 0.0000000000000000e+00  -1.0278744835986828e+00 1.2060755056493402e-01 0.0000000000000000e+00  -1.0686803966067584e+00 1.3331567213563217e-01 0.0000000000000000e+00  -1.1140494748932444e+00 1.4810473138498631e-01 0.0000000000000000e+00  -1.1645732919697882e+00 1.6552908046640236e-01 0.0000000000000000e+00  -1.2209475823527696e+00 1.8635453356263043e-01 0.0000000000000000e+00  -1.2839844627421089e+00 2.1166249396703704e-01 0.0000000000000000e+00  -1.3545949669935156e+00 2.4301430537546762e-01 0.0000000000000000e+00  -1.4337549576865596e+00 2.8271089478151057e-01 0.0000000000000000e+00  -1.5221603272790540e+00 3.3418398992825871e-01 0.0000000000000000e+00  -1.6202397016170225e+00 4.0258487700559747e-01 0.0000000000000000e+00  -1.7243701995638585e+00 4.9521887470940662e-01 0.0000000000000000e+00  -1.8343850781401350e+00 6.2163881048125003e-01 0.0000000000000000e+00  -1.9058735294206597e+00 7.9115630206424525e-01 0.0000000000000000e+00  -2.0259643281589361e+00 9.9062676658413507e-01 0.0000000000000000e+00  -6.9865064850763903e-01 3.2158696694150080e-07 0.0000000000000000e+00  -6.9915637558819266e-01 1.4712848733544133e-03 0.0000000000000000e+00  -6.9898534453229422e-01 2.9488603757053203e-03 0.0000000000000000e+00  -6.9894907152502594e-01 4.4392067294331304e-03 0.0000000000000000e+00  -6.9887812786402603e-01 5.9489433044051208e-03 0.0000000000000000e+00  -6.9883391066204625e-01 7.4849004015502289e-03 0.0000000000000000e+00  -6.9882959756178942e-01 9.0543849531054561e-03 0.0000000000000000e+00  -6.9889258971966439e-01 1.0664847914334920e-02 0.0000000000000000e+00  -6.9905115636130677e-01 1.2323974571712314e-02 0.0000000000000000e+00  -6.9933720847344205e-01 1.4039788223782552e-02 0.0000000000000000e+00  -6.9978580725663142e-01 1.5820679502384281e-02 0.0000000000000000e+00  -7.0043529135172988e-01 1.7675492319089370e-02 0.0000000000000000e+00  -7.0132730792299058e-01 1.9613597520198228e-02 0.0000000000000000e+00  -7.0250687022556690e-01 2.1644980253075118e-02 0.0000000000000000e+00  -7.0402242851570873e-01 2.3780336969892422e-02 0.0000000000000000e+00  -7.0592595923783985e-01 2.6031186052908415e-02 0.0000000000000000e+00  -7.0827307617259205e-01 2.8409995041121367e-02 0.0000000000000000e+00  -7.1112316764434569e-01 3.0930328295148812e-02 0.0000000000000000e+00  -7.1453956457490009e-01 3.3607019764374142e-02 0.0000000000000000e+00  -7.1858974495204742e-01 3.6456376617675652e-02 0.0000000000000000e+00  -7.2334558127191739e-01 3.9496420930115447e-02 0.0000000000000000e+00  -7.2888363873061102e-01 4.2747178479743825e-02 0.0000000000000000e+00  -7.3528553343445502e-01 4.6231026141705794e-02 0.0000000000000000e+00  -7.4263836172704101e-01 4.9973112563320439e-02 0.0000000000000000e+00  -7.5103521396879780e-01 5.4001871035478363e-02 0.0000000000000000e+00  -7.6057578882873855e-01 5.8349649117626697e-02 0.0000000000000000e+00  -7.7136712744899061e-01 6.3053487161295593e-02 0.0000000000000000e+00  -7.8352449080360564e-01 6.8156088173857571e-02 0.0000000000000000e+00  -7.9717240825479174e-01 7.3707035568103346e-02 0.0000000000000000e+00  -8.1244593069925863e-01 7.9764334853606206e-02 0.0000000000000000e+00  -8.2949212762969338e-01 8.6396382596347826e-02 0.0000000000000000e+00  -8.4847187339822749e-01 9.3684504490034015e-02 0.0000000000000000e+00  -8.6956197279628888e-01 1.0172625937845721e-01 0.0000000000000000e+00  -8.9295767721432562e-01 1.1063978543789038e-01 0.0000000000000000e+00  -9.1887563512982373e-01 1.2056958047842257e-01 0.0000000000000000e+00  -9.4755729384630438e-01 1.3169427876232728e-01 0.0000000000000000e+00  -9.7927270490326346e-01 1.4423723971312655e-01 0.0000000000000000e+00  -1.0143245368476832e+00 1.5848114121238416e-01 0.0000000000000000e+00  -1.0530518140452712e+00 1.7478833271658389e-01 0.0000000000000000e+00  -1.0958322208642370e+00 1.9362953281935016e-01 0.0000000000000000e+00  -1.1430808287968428e+00 2.1562464521726188e-01 0.0000000000000000e+00  -1.1952396466864261e+00 2.4160104208298289e-01 0.0000000000000000e+00  -1.2527514349082867e+00 2.7267643756003163e-01 0.0000000000000000e+00  -1.3159864368182888e+00 3.1037420780527503e-01 0.0000000000000000e+00  -1.3851332282327553e+00 3.5677504750124550e-01 0.0000000000000000e+00  -1.4597982760919046e+00 4.1469169531226313e-01 0.0000000000000000e+00  -1.5389453908834636e+00 4.8778876169698254e-01 0.0000000000000000e+00  -1.6180750338210286e+00 5.8041899844681333e-01 0.0000000000000000e+00  -1.6956264235477372e+00 6.9687349019170575e-01 0.0000000000000000e+00  -1.7396337436793079e+00 8.3741414092145317e-01 0.0000000000000000e+00  -1.8241867122584965e+00 9.9971883370290526e-01 0.0000000000000000e+00  -6.9690115084287840e-01 3.8925542660849752e-07 0.0000000000000000e+00  -6.9753286257978731e-01 1.8249355624365769e-03 0.0000000000000000e+00  -6.9731637724045825e-01 3.6579146405928725e-03 0.0000000000000000e+00  -6.9727153288247623e-01 5.5066174866905074e-03 0.0000000000000000e+00  -6.9717236516555081e-01 7.3795508509642716e-03 0.0000000000000000e+00  -6.9709526966740809e-01 9.2853447250453476e-03 0.0000000000000000e+00  -6.9704904217049990e-01 1.1232862671529646e-02 0.0000000000000000e+00  -6.9706191376247628e-01 1.3231219861577210e-02 0.0000000000000000e+00  -6.9716154713357159e-01 1.5289889065403517e-02 0.0000000000000000e+00  -6.9737953282508036e-01 1.7418738608871422e-02 0.0000000000000000e+00  -6.9775045265392410e-01 1.9628106644094475e-02 0.0000000000000000e+00  -6.9831210534769483e-01 2.1928887161275036e-02 0.0000000000000000e+00  -6.9910550457307852e-01 2.4332618747234903e-02 0.0000000000000000e+00  -7.0017493070897430e-01 2.6851587992679438e-02 0.0000000000000000e+00  -7.0156798748905691e-01 2.9498944839116595e-02 0.0000000000000000e+00  -7.0333567492371341e-01 3.2288834401500009e-02 0.0000000000000000e+00  -7.0553248034302041e-01 3.5236548350163585e-02 0.0000000000000000e+00  -7.0821649101680584e-01 3.8358700245385589e-02 0.0000000000000000e+00  -7.1144953209085016e-01 4.1673430088141873e-02 0.0000000000000000e+00  -7.1529733407549845e-01 4.5200644607284041e-02 0.0000000000000000e+00  -7.1982973472586365e-01 4.8962301388236686e-02 0.0000000000000000e+00  -7.2512092085905688e-01 5.2982746989647125e-02 0.0000000000000000e+00  -7.3124971647209036e-01 5.7289121832355114e-02 0.0000000000000000e+00  -7.3829992444915771e-01 6.1911848073677028e-02 0.0000000000000000e+00  -7.4636073016429105e-01 6.6885221164028591e-02 0.0000000000000000e+00  -7.55527