<?xml version="1.0"?>
<VTKFile type="UnstructuredGrid"  version="0.1"  >
<UnstructuredGrid>
<Piece  NumberOfPoints="2601" NumberOfCells="5000">
<Points>
<DataArray  type="Float64"  NumberOfComponents="3"  format="ascii">0 0 0  0.02 0 0  0.04 0 0  0.06 0 0  0.08 0 0  0.1 0 0  0.12 0 0  0.14 0 0  0.16 0 0  0.18 0 0  0.2 0 0  0.22 0 0  0.24 0 0  0.26 0 0  0.28 0 0  0.3 0 0  0.32 0 0  0.34 0 0  0.36 0 0  0.38 0 0  0.4 0 0  0.42 0 0  0.44 0 0  0.46 0 0  0.48 0 0  0.5 0 0  0.52 0 0  0.54 0 0  0.5600000000000001 0 0  0.58 0 0  0.6 0 0  0.62 0 0  0.64 0 0  0.66 0 0  0.68 0 0  0.7 0 0  0.72 0 0  0.74 0 0  0.76 0 0  0.78 0 0  0.8 0 0  0.82 0 0  0.84 0 0  0.86 0 0  0.88 0 0  0.9 0 0  0.92 0 0  0.9399999999999999 0 0  0.96 0 0  0.98 0 0  1 0 0  0 0.02 0  0.02 0.02 0  0.04 0.02 0  0.06 0.02 0  0.08 0.02 0  0.1 0.02 0  0.12 0.02 0  0.14 0.02 0  0.16 0.02 0  0.18 0.02 0  0.2 0.02 0  0.22 0.02 0  0.24 0.02 0  0.26 0.02 0  0.28 0.02 0  0.3 0.02 0  0.32 0.02 0  0.34 0.02 0  0.36 0.02 0  0.38 0.02 0  0.4 0.02 0  0.42 0.02 0  0.44 0.02 0  0.46 0.02 0  0.48 0.02 0  0.5 0.02 0  0.52 0.02 0  0.54 0.02 0  0.5600000000000001 0.02 0  0.58 0.02 0  0.6 0.02 0  0.62 0.02 0  0.64 0.02 0  0.66 0.02 0  0.68 0.02 0  0.7 0.02 0  0.72 0.02 0  0.74 0.02 0  0.76 0.02 0  0.78 0.02 0  0.8 0.02 0  0.82 0.02 0  0.84 0.02 0  0.86 0.02 0  0.88 0.02 0  0.9 0.02 0  0.92 0.02 0  0.9399999999999999 0.02 0  0.96 0.02 0  0.98 0.02 0  1 0.02 0  0 0.04 0  0.02 0.04 0  0.04 0.04 0  0.06 0.04 0  0.08 0.04 0  0.1 0.04 0  0.12 0.04 0  0.14 0.04 0  0.16 0.04 0  0.18 0.04 0  0.2 0.04 0  0.22 0.04 0  0.24 0.04 0  0.26 0.04 0  0.28 0.04 0  0.3 0.04 0  0.32 0.04 0  0.34 0.04 0  0.36 0.04 0  0.38 0.04 0  0.4 0.04 0  0.42 0.04 0  0.44 0.04 0  0.46 0.04 0  0.48 0.04 0  0.5 0.04 0  0.52 0.04 0  0.54 0.04 0  0.5600000000000001 0.04 0  0.58 0.04 0  0.6 0.04 0  0.62 0.04 0  0.64 0.04 0  0.66 0.04 0  0.68 0.04 0  0.7 0.04 0  0.72 0.04 0  0.74 0.04 0  0.76 0.04 0  0.78 0.04 0  0.8 0.04 0  0.82 0.04 0  0.84 0.04 0  0.86 0.04 0  0.88 0.04 0  0.9 0.04 0  0.92 0.04 0  0.9399999999999999 0.04 0  0.96 0.04 0  0.98 0.04 0  1 0.04 0  0 0.06 0  0.02 0.06 0  0.04 0.06 0  0.06 0.06 0  0.08 0.06 0  0.1 0.06 0  0.12 0.06 0  0.14 0.06 0  0.16 0.06 0  0.18 0.06 0  0.2 0.06 0  0.22 0.06 0  0.24 0.06 0  0.26 0.06 0  0.28 0.06 0  0.3 0.06 0  0.32 0.06 0  0.34 0.06 0  0.36 0.06 0  0.38 0.06 0  0.4 0.06 0  0.42 0.06 0  0.44 0.06 0  0.46 0.06 0  0.48 0.06 0  0.5 0.06 0  0.52 0.06 0  0.54 0.06 0  0.5600000000000001 0.06 0  0.58 0.06 0  0.6 0.06 0  0.62 0.06 0  0.64 0.06 0  0.66 0.06 0  0.68 0.06 0  0.7 0.06 0  0.72 0.06 0  0.74 0.06 0  0.76 0.06 0  0.78 0.06 0  0.8 0.06 0  0.82 0.06 0  0.84 0.06 0  0.86 0.06 0  0.88 0.06 0  0.9 0.06 0  0.92 0.06 0  0.9399999999999999 0.06 0  0.96 0.06 0  0.98 0.06 0  1 0.06 0  0 0.08 0  0.02 0.08 0  0.04 0.08 0  0.06 0.08 0  0.08 0.08 0  0.1 0.08 0  0.12 0.08 0  0.14 0.08 0  0.16 0.08 0  0.18 0.08 0  0.2 0.08 0  0.22 0.08 0  0.24 0.08 0  0.26 0.08 0  0.28 0.08 0  0.3 0.08 0  0.32 0.08 0  0.34 0.08 0  0.36 0.08 0  0.38 0.08 0  0.4 0.08 0  0.42 0.08 0  0.44 0.08 0  0.46 0.08 0  0.48 0.08 0  0.5 0.08 0  0.52 0.08 0  0.54 0.08 0  0.5600000000000001 0.08 0  0.58 0.08 0  0.6 0.08 0  0.62 0.08 0  0.64 0.08 0  0.66 0.08 0  0.68 0.08 0  0.7 0.08 0  0.72 0.08 0  0.74 0.08 0  0.76 0.08 0  0.78 0.08 0  0.8 0.08 0  0.82 0.08 0  0.84 0.08 0  0.86 0.08 0  0.88 0.08 0  0.9 0.08 0  0.92 0.08 0  0.9399999999999999 0.08 0  0.96 0.08 0  0.98 0.08 0  1 0.08 0  0 0.1 0  0.02 0.1 0  0.04 0.1 0  0.06 0.1 0  0.08 0.1 0  0.1 0.1 0  0.12 0.1 0  0.14 0.1 0  0.16 0.1 0  0.18 0.1 0  0.2 0.1 0  0.22 0.1 0  0.24 0.1 0  0.26 0.1 0  0.28 0.1 0  0.3 0.1 0  0.32 0.1 0  0.34 0.1 0  0.36 0.1 0  0.38 0.1 0  0.4 0.1 0  0.42 0.1 0  0.44 0.1 0  0.46 0.1 0  0.48 0.1 0  0.5 0.1 0  0.52 0.1 0  0.54 0.1 0  0.5600000000000001 0.1 0  0.58 0.1 0  0.6 0.1 0  0.62 0.1 0  0.64 0.1 0  0.66 0.1 0  0.68 0.1 0  0.7 0.1 0  0.72 0.1 0  0.74 0.1 0  0.76 0.1 0  0.78 0.1 0  0.8 0.1 0  0.82 0.1 0  0.84 0.1 0  0.86 0.1 0  0.88 0.1 0  0.9 0.1 0  0.92 0.1 0  0.9399999999999999 0.1 0  0.96 0.1 0  0.98 0.1 0  1 0.1 0  0 0.12 0  0.02 0.12 0  0.04 0.12 0  0.06 0.12 0  0.08 0.12 0  0.1 0.12 0  0.12 0.12 0  0.14 0.12 0  0.16 0.12 0  0.18 0.12 0  0.2 0.12 0  0.22 0.12 0  0.24 0.12 0  0.26 0.12 0  0.28 0.12 0  0.3 0.12 0  0.32 0.12 0  0.34 0.12 0  0.36 0.12 0  0.38 0.12 0  0.4 0.12 0  0.42 0.12 0  0.44 0.12 0  0.46 0.12 0  0.48 0.12 0  0.5 0.12 0  0.52 0.12 0  0.54 0.12 0  0.5600000000000001 0.12 0  0.58 0.12 0  0.6 0.12 0  0.62 0.12 0  0.64 0.12 0  0.66 0.12 0  0.68 0.12 0  0.7 0.12 0  0.72 0.12 0  0.74 0.12 0  0.76 0.12 0  0.78 0.12 0  0.8 0.12 0  0.82 0.12 0  0.84 0.12 0  0.86 0.12 0  0.88 0.12 0  0.9 0.12 0  0.92 0.12 0  0.9399999999999999 0.12 0  0.96 0.12 0  0.98 0.12 0  1 0.12 0  0 0.14 0  0.02 0.14 0  0.04 0.14 0  0.06 0.14 0  0.08 0.14 0  0.1 0.14 0  0.12 0.14 0  0.14 0.14 0  0.16 0.14 0  0.18 0.14 0  0.2 0.14 0  0.22 0.14 0  0.24 0.14 0  0.26 0.14 0  0.28 0.14 0  0.3 0.14 0  0.32 0.14 0  0.34 0.14 0  0.36 0.14 0  0.38 0.14 0  0.4 0.14 0  0.42 0.14 0  0.44 0.14 0  0.46 0.14 0  0.48 0.14 0  0.5 0.14 0  0.52 0.14 0  0.54 0.14 0  0.5600000000000001 0.14 0  0.58 0.14 0  0.6 0.14 0  0.62 0.14 0  0.64 0.14 0  0.66 0.14 0  0.68 0.14 0  0.7 0.14 0  0.72 0.14 0  0.74 0.14 0  0.76 0.14 0  0.78 0.14 0  0.8 0.14 0  0.82 0.14 0  0.84 0.14 0  0.86 0.14 0  0.88 0.14 0  0.9 0.14 0  0.92 0.14 0  0.9399999999999999 0.14 0  0.96 0.14 0  0.98 0.14 0  1 0.14 0  0 0.16 0  0.02 0.16 0  0.04 0.16 0  0.06 0.16 0  0.08 0.16 0  0.1 0.16 0  0.12 0.16 0  0.14 0.16 0  0.16 0.16 0  0.18 0.16 0  0.2 0.16 0  0.22 0.16 0  0.24 0.16 0  0.26 0.16 0  0.28 0.16 0  0.3 0.16 0  0.32 0.16 0  0.34 0.16 0  0.36 0.16 0  0.38 0.16 0  0.4 0.16 0  0.42 0.16 0  0.44 0.16 0  0.46 0.16 0  0.48 0.16 0  0.5 0.16 0  0.52 0.16 0  0.54 0.16 0  0.5600000000000001 0.16 0  0.58 0.16 0  0.6 0.16 0  0.62 0.16 0  0.64 0.16 0  0.66 0.16 0  0.68 0.16 0  0.7 0.16 0  0.72 0.16 0  0.74 0.16 0  0.76 0.16 0  0.78 0.16 0  0.8 0.16 0  0.82 0.16 0  0.84 0.16 0  0.86 0.16 0  0.88 0.16 0  0.9 0.16 0  0.92 0.16 0  0.9399999999999999 0.16 0  0.96 0.16 0  0.98 0.16 0  1 0.16 0  0 0.18 0  0.02 0.18 0  0.04 0.18 0  0.06 0.18 0  0.08 0.18 0  0.1 0.18 0  0.12 0.18 0  0.14 0.18 0  0.16 0.18 0  0.18 0.18 0  0.2 0.18 0  0.22 0.18 0  0.24 0.18 0  0.26 0.18 0  0.28 0.18 0  0.3 0.18 0  0.32 0.18 0  0.34 0.18 0  0.36 0.18 0  0.38 0.18 0  0.4 0.18 0  0.42 0.18 0  0.44 0.18 0  0.46 0.18 0  0.48 0.18 0  0.5 0.18 0  0.52 0.18 0  0.54 0.18 0  0.5600000000000001 0.18 0  0.58 0.18 0  0.6 0.18 0  0.62 0.18 0  0.64 0.18 0  0.66 0.18 0  0.68 0.18 0  0.7 0.18 0  0.72 0.18 0  0.74 0.18 0  0.76 0.18 0  0.78 0.18 0  0.8 0.18 0  0.82 0.18 0  0.84 0.18 0  0.86 0.18 0  0.88 0.18 0  0.9 0.18 0  0.92 0.18 0  0.9399999999999999 0.18 0  0.96 0.18 0  0.98 0.18 0  1 0.18 0  0 0.2 0  0.02 0.2 0  0.04 0.2 0  0.06 0.2 0  0.08 0.2 0  0.1 0.2 0  0.12 0.2 0  0.14 0.2 0  0.16 0.2 0  0.18 0.2 0  0.2 0.2 0  0.22 0.2 0  0.24 0.2 0  0.26 0.2 0  0.28 0.2 0  0.3 0.2 0  0.32 0.2 0  0.34 0.2 0  0.36 0.2 0  0.38 0.2 0  0.4 0.2 0  0.42 0.2 0  0.44 0.2 0  0.46 0.2 0  0.48 0.2 0  0.5 0.2 0  0.52 0.2 0  0.54 0.2 0  0.5600000000000001 0.2 0  0.58 0.2 0  0.6 0.2 0  0.62 0.2 0  0.64 0.2 0  0.66 0.2 0  0.68 0.2 0  0.7 0.2 0  0.72 0.2 0  0.74 0.2 0  0.76 0.2 0  0.78 0.2 0  0.8 0.2 0  0.82 0.2 0  0.84 0.2 0  0.86 0.2 0  0.88 0.2 0  0.9 0.2 0  0.92 0.2 0  0.9399999999999999 0.2 0  0.96 0.2 0  0.98 0.2 0  1 0.2 0  0 0.22 0  0.02 0.22 0  0.04 0.22 0  0.06 0.22 0  0.08 0.22 0  0.1 0.22 0  0.12 0.22 0  0.14 0.22 0  0.16 0.22 0  0.18 0.22 0  0.2 0.22 0  0.22 0.22 0  0.24 0.22 0  0.26 0.22 0  0.28 0.22 0  0.3 0.22 0  0.32 0.22 0  0.34 0.22 0  0.36 0.22 0  0.38 0.22 0  0.4 0.22 0  0.42 0.22 0  0.44 0.22 0  0.46 0.22 0  0.48 0.22 0  0.5 0.22 0  0.52 0.22 0  0.54 0.22 0  0.5600000000000001 0.22 0  0.58 0.22 0  0.6 0.22 0  0.62 0.22 0  0.64 0.22 0  0.66 0.22 0  0.68 0.22 0  0.7 0.22 0  0.72 0.22 0  0.74 0.22 0  0.76 0.22 0  0.78 0.22 0  0.8 0.22 0  0.82 0.22 0  0.84 0.22 0  0.86 0.22 0  0.88 0.22 0  0.9 0.22 0  0.92 0.22 0  0.9399999999999999 0.22 0  0.96 0.22 0  0.98 0.22 0  1 0.22 0  0 0.24 0  0.02 0.24 0  0.04 0.24 0  0.06 0.24 0  0.08 0.24 0  0.1 0.24 0  0.12 0.24 0  0.14 0.24 0  0.16 0.24 0  0.18 0.24 0  0.2 0.24 0  0.22 0.24 0  0.24 0.24 0  0.26 0.24 0  0.28 0.24 0  0.3 0.24 0  0.32 0.24 0  0.34 0.24 0  0.36 0.24 0  0.38 0.24 0  0.4 0.24 0  0.42 0.24 0  0.44 0.24 0  0.46 0.24 0  0.48 0.24 0  0.5 0.24 0  0.52 0.24 0  0.54 0.24 0  0.5600000000000001 0.24 0  0.58 0.24 0  0.6 0.24 0  0.62 0.24 0  0.64 0.24 0  0.66 0.24 0  0.68 0.24 0  0.7 0.24 0  0.72 0.24 0  0.74 0.24 0  0.76 0.24 0  0.78 0.24 0  0.8 0.24 0  0.82 0.24 0  0.84 0.24 0  0.86 0.24 0  0.88 0.24 0  0.9 0.24 0  0.92 0.24 0  0.9399999999999999 0.24 0  0.96 0.24 0  0.98 0.24 0  1 0.24 0  0 0.26 0  0.02 0.26 0  0.04 0.26 0  0.06 0.26 0  0.08 0.26 0  0.1 0.26 0  0.12 0.26 0  0.14 0.26 0  0.16 0.26 0  0.18 0.26 0  0.2 0.26 0  0.22 0.26 0  0.24 0.26 0  0.26 0.26 0  0.28 0.26 0  0.3 0.26 0  0.32 0.26 0  0.34 0.26 0  0.36 0.26 0  0.38 0.26 0  0.4 0.26 0  0.42 0.26 0  0.44 0.26 0  0.46 0.26 0  0.48 0.26 0  0.5 0.26 0  0.52 0.26 0  0.54 0.26 0  0.5600000000000001 0.26 0  0.58 0.26 0  0.6 0.26 0  0.62 0.26 0  0.64 0.26 0  0.66 0.26 0  0.68 0.26 0  0.7 0.26 0  0.72 0.26 0  0.74 0.26 0  0.76 0.26 0  0.78 0.26 0  0.8 0.26 0  0.82 0.26 0  0.84 0.26 0  0.86 0.26 0  0.88 0.26 0  0.9 0.26 0  0.92 0.26 0  0.9399999999999999 0.26 0  0.96 0.26 0  0.98 0.26 0  1 0.26 0  0 0.28 0  0.02 0.28 0  0.04 0.28 0  0.06 0.28 0  0.08 0.28 0  0.1 0.28 0  0.12 0.28 0  0.14 0.28 0  0.16 0.28 0  0.18 0.28 0  0.2 0.28 0  0.22 0.28 0  0.24 0.28 0  0.26 0.28 0  0.28 0.28 0  0.3 0.28 0  0.32 0.28 0  0.34 0.28 0  0.36 0.28 0  0.38 0.28 0  0.4 0.28 0  0.42 0.28 0  0.44 0.28 0  0.46 0.28 0  0.48 0.28 0  0.5 0.28 0  0.52 0.28 0  0.54 0.28 0  0.5600000000000001 0.28 0  0.58 0.28 0  0.6 0.28 0  0.62 0.28 0  0.64 0.28 0  0.66 0.28 0  0.68 0.28 0  0.7 0.28 0  0.72 0.28 0  0.74 0.28 0  0.76 0.28 0  0.78 0.28 0  0.8 0.28 0  0.82 0.28 0  0.84 0.28 0  0.86 0.28
[...]
<PointData  Vectors="f_224"> 
<DataArray  type="Float64"  Name="f_224"  NumberOfComponents="3" format="ascii">-5.9969973160102730e-01 -2.3664822422794765e-05 0.0000000000000000e+00  -5.9989234930806845e-01 1.1377764436305043e-04 0.0000000000000000e+00  -6.0034627828639719e-01 2.1769478679400746e-04 0.0000000000000000e+00  -6.0112751860173319e-01 3.2545883403317411e-04 0.0000000000000000e+00  -6.0225215754177142e-01 4.3449966672793315e-04 0.0000000000000000e+00  -6.0373825022820560e-01 5.4535107062959269e-04 0.0000000000000000e+00  -6.0560709262240298e-01 6.5865355190955108e-04 0.0000000000000000e+00  -6.0788175890405327e-01 7.7492842233070050e-04 0.0000000000000000e+00  -6.1058739270404061e-01 8.9473891831222158e-04 0.0000000000000000e+00  -6.1375124760571875e-01 1.0186691417421246e-03 0.0000000000000000e+00  -6.1740276766627611e-01 1.1473326607522886e-03 0.0000000000000000e+00  -6.2157369043496269e-01 1.2813782800866716e-03 0.0000000000000000e+00  -6.2629816769157931e-01 1.4214958784139263e-03 0.0000000000000000e+00  -6.3161290750443377e-01 1.5684230478973720e-03 0.0000000000000000e+00  -6.3755733998233755e-01 1.7229525721397382e-03 0.0000000000000000e+00  -6.4417381016626452e-01 1.8859410076346819e-03 0.0000000000000000e+00  -6.5150780233400130e-01 2.0583186274906410e-03 0.0000000000000000e+00  -6.5960820097207362e-01 2.2411010435578731e-03 0.0000000000000000e+00  -6.6852759488097901e-01 2.4354028970465734e-03 0.0000000000000000e+00  -6.7832263237914714e-01 2.6424541055090527e-03 0.0000000000000000e+00  -6.8905443745906769e-01 2.8636192833168786e-03 0.0000000000000000e+00  -7.0078909914319454e-01 3.1004211221925481e-03 0.0000000000000000e+00  -7.1359824935140703e-01 3.3545687432711920e-03 0.0000000000000000e+00  -7.2755974854716376e-01 3.6279923333780565e-03 0.0000000000000000e+00  -7.4275850357787587e-01 3.9228857828218994e-03 0.0000000000000000e+00  -7.5928744889168065e-01 4.2417595948585152e-03 0.0000000000000000e+00  -7.7724873129250349e-01 4.5875070979947115e-03 0.0000000000000000e+00  -7.9675515043972767e-01 4.9634880536342085e-03 0.0000000000000000e+00  -8.1793192363909673e-01 5.3736352521454268e-03 0.0000000000000000e+00  -8.4091886591665888e-01 5.8225918403612565e-03 0.0000000000000000e+00  -8.6587310761559111e-01 6.3158902550598502e-03 0.0000000000000000e+00  -8.9297251589492055e-01 6.8601882739108572e-03 0.0000000000000000e+00  -9.2242004988949100e-01 7.4635846907223271e-03 0.0000000000000000e+00  -9.5444937182309397e-01 8.1360478984903641e-03 0.0000000000000000e+00  -9.8933217446992960e-01 8.8900076421696509e-03 0.0000000000000000e+00  -1.0273878945572090e+00 9.7411876528642367e-03 0.0000000000000000e+00  -1.0689968120408300e+00 1.0709802590270670e-02 0.0000000000000000e+00  -1.1146180478257079e+00 1.1822321086955804e-02 0.0000000000000000e+00  -1.1648148881196148e+00 1.3114138453952864e-02 0.0000000000000000e+00  -1.2202911526085651e+00 1.4633762553931680e-02 0.0000000000000000e+00  -1.2819457535735459e+00 1.6449638765469954e-02 0.0000000000000000e+00  -1.3509545337285140e+00 1.8661961949111561e-02 0.0000000000000000e+00  -1.4289102995790459e+00 2.1423882993099972e-02 0.0000000000000000e+00  -1.5180240126201003e+00 2.4985397737324323e-02 0.0000000000000000e+00  -1.6216679818232849e+00 2.9806696785521530e-02 0.0000000000000000e+00  -1.7445292395036107e+00 3.6730892710887954e-02 0.0000000000000000e+00  -1.8979747567826228e+00 4.8604019646252515e-02 0.0000000000000000e+00  -2.0893865828730709e+00 7.2243276854875027e-02 0.0000000000000000e+00  -2.3962528036130082e+00 1.3588115440278806e-01 0.0000000000000000e+00  -2.9039771381807293e+00 4.5902100315035482e-01 0.0000000000000000e+00  -3.7252419725595565e+00 1.3367939394023691e+00 0.0000000000000000e+00  -5.9945384971152693e-01 7.4525176329314218e-06 0.0000000000000000e+00  -5.9972287891911036e-01 3.6347436337282675e-04 0.0000000000000000e+00  -6.0015711175467878e-01 7.0116184245691603e-04 0.0000000000000000e+00  -6.0094016359541180e-01 1.0490726204315827e-03 0.0000000000000000e+00  -6.0206173107974037e-01 1.3995689174226037e-03 0.0000000000000000e+00  -6.0354412923398115e-01 1.7564768977486672e-03 0.0000000000000000e+00  -6.0540835846668128e-01 2.1212361179548506e-03 0.0000000000000000e+00  -6.0767744660585332e-01 2.4955929948699976e-03 0.0000000000000000e+00  -6.1037651874695154e-01 2.8813409291433981e-03 0.0000000000000000e+00  -6.1353277974965226e-01 3.2803444525303458e-03 0.0000000000000000e+00  -6.1717561869536608e-01 3.6945649542545959e-03 0.0000000000000000e+00  -6.2133670798885932e-01 4.1260762884864008e-03 0.0000000000000000e+00  -6.2605012348586198e-01 4.5770840991842575e-03 0.0000000000000000e+00  -6.3135248531340149e-01 5.0499469381126618e-03 0.0000000000000000e+00  -6.3728312192779535e-01 5.5472001979785550e-03 0.0000000000000000e+00  -6.4388426092295836e-01 6.0715835852075345e-03 0.0000000000000000e+00  -6.5120125075851465e-01 6.6260729560531232e-03 0.0000000000000000e+00  -6.5928281856042947e-01 7.2139175280290409e-03 0.0000000000000000e+00  -6.6818137031451597e-01 7.8386837118205217e-03 0.0000000000000000e+00  -6.7795334122914375e-01 8.5043071233296044e-03 0.0000000000000000e+00  -6.8865960587009567e-01 9.2151547466733461e-03 0.0000000000000000e+00  -7.0036595998632944e-01 9.9760997608408630e-03 0.0000000000000000e+00  -7.1314368890019986e-01 1.0792612259689407e-02 0.0000000000000000e+00  -7.2707024114254271e-01 1.1670870052938398e-02 0.0000000000000000e+00  -7.4223003095390394e-01 1.2617895026095701e-02 0.0000000000000000e+00  -7.5871539974766056e-01 1.3641722294415628e-02 0.0000000000000000e+00  -7.7662777519382009e-01 1.4751611804323798e-02 0.0000000000000000e+00  -7.9607907802431932e-01 1.5958315404743857e-02 0.0000000000000000e+00  -8.1719344211651213e-01 1.7274417165654088e-02 0.0000000000000000e+00  -8.4010933454003711e-01 1.8714771526865039e-02 0.0000000000000000e+00  -8.6498219150117195e-01 2.0297073749575255e-02 0.0000000000000000e+00  -8.9198772717637853e-01 2.2042611758259747e-02 0.0000000000000000e+00  -9.2132613093367910e-01 2.3977270450294304e-02 0.0000000000000000e+00  -9.5322745316527058e-01 2.6132893311668789e-02 0.0000000000000000e+00  -9.8795860496784793e-01 2.8549159162757558e-02 0.0000000000000000e+00  -1.0258325845888492e+00 3.1276217087845185e-02 0.0000000000000000e+00  -1.0672208331831283e+00 3.4378463501520067e-02 0.0000000000000000e+00  -1.1125700734125445e+00 3.7940085628206277e-02 0.0000000000000000e+00  -1.1624257320846063e+00 4.2073420127956916e-02 0.0000000000000000e+00  -1.2174652137724280e+00 4.6931954165450415e-02 0.0000000000000000e+00  -1.2785466182598104e+00 5.2731310783490110e-02 0.0000000000000000e+00  -1.3467812671351294e+00 5.9784553231711834e-02 0.0000000000000000e+00  -1.4236489515735187e+00 6.8564780786886464e-02 0.0000000000000000e+00  -1.5111744554583260e+00 7.9824028630483670e-02 0.0000000000000000e+00  -1.6122500147278953e+00 9.4824196126342533e-02 0.0000000000000000e+00  -1.7311073470569986e+00 1.1588463082179608e-01 0.0000000000000000e+00  -1.8744932592372978e+00 1.4758471309542492e-01 0.0000000000000000e+00  -2.0504863451305235e+00 1.9897634337918899e-01 0.0000000000000000e+00  -2.2879172617403181e+00 2.9846428663690133e-01 0.0000000000000000e+00  -2.5018779962398980e+00 4.7012401874267495e-01 0.0000000000000000e+00  -2.9881996712319854e+00 8.6712445671152516e-01 0.0000000000000000e+00  -5.9878444230420369e-01 -1.0158590030179608e-06 0.0000000000000000e+00  -5.9918797510508481e-01 7.4004106020714275e-04 0.0000000000000000e+00  -5.9959177404006647e-01 1.4910777513439948e-03 0.0000000000000000e+00  -6.0037537344213643e-01 2.2492816315338449e-03 0.0000000000000000e+00  -6.0148699394878202e-01 3.0159560415188159e-03 0.0000000000000000e+00  -6.0295829658675459e-01 3.7964974028318740e-03 0.0000000000000000e+00  -6.0480841899607585e-01 4.5939598479686310e-03 0.0000000000000000e+00  -6.0706058454404499e-01 5.4122296989745546e-03 0.0000000000000000e+00  -6.0973978067174228e-01 6.2551739758371352e-03 0.0000000000000000e+00  -6.1287307140696823e-01 7.1268522755734863e-03 0.0000000000000000e+00  -6.1648967948038069e-01 8.0315289487074941e-03 0.0000000000000000e+00  -6.2062108058838339e-01 8.9737115672246653e-03 0.0000000000000000e+00  -6.2530112210711142e-01 9.9581919339629711e-03 0.0000000000000000e+00  -6.3056615963211993e-01 1.0990091228454518e-02 0.0000000000000000e+00  -6.3645521600658317e-01 1.2074911368723717e-02 0.0000000000000000e+00  -6.4301016585486359e-01 1.3218593876771443e-02 0.0000000000000000e+00  -6.5027594958452839e-01 1.4427588027244937e-02 0.0000000000000000e+00  -6.5830082168867177e-01 1.5708930398833601e-02 0.0000000000000000e+00  -6.6713663923496125e-01 1.7070338447225157e-02 0.0000000000000000e+00  -6.7683919775224055e-01 1.8520321374642316e-02 0.0000000000000000e+00  -6.8746862337522308e-01 2.0068312425800646e-02 0.0000000000000000e+00  -6.9908983218895970e-01 2.1724827863131260e-02 0.0000000000000000e+00  -7.1177307034956949e-01 2.3501659355232959e-02 0.0000000000000000e+00  -7.2559455192651767e-01 2.5412108484083384e-02 0.0000000000000000e+00  -7.4063721574336727e-01 2.7471274721549175e-02 0.0000000000000000e+00  -7.5699162811322329e-01 2.9696411811725602e-02 0.0000000000000000e+00  -7.7475706571042990e-01 3.2107372406578974e-02 0.0000000000000000e+00  -7.9404282250930436e-01 3.4727167607763954e-02 0.0000000000000000e+00  -8.1496979761140775e-01 3.7582677610294497e-02 0.0000000000000000e+00  -8.3767243810747782e-01 4.0705563208282787e-02 0.0000000000000000e+00  -8.6230113462861258e-01 4.4133447476655839e-02 0.0000000000000000e+00  -8.8902519948431225e-01 4.7911465571826073e-02 0.0000000000000000e+00  -9.1803660199334525e-01 5.2094323214833274e-02 0.0000000000000000e+00  -9.4955469826069627e-01 5.6749069038384232e-02 0.0000000000000000e+00  -9.8383228157078562e-01 6.1958885904390998e-02 0.0000000000000000e+00  -1.0211634064749060e+00 6.7828364201050095e-02 0.0000000000000000e+00  -1.0618936249171154e+00 7.4490975627922007e-02 0.0000000000000000e+00  -1.1064335351102974e+00 8.2119890177161411e-02 0.0000000000000000e+00  -1.1552769532022604e+00 9.0944003426308540e-02 0.0000000000000000e+00  -1.2090254969132548e+00 1.0127231703547092e-01 0.0000000000000000e+00  -1.2684224530073622e+00 1.1353213377052881e-01 0.0000000000000000e+00  -1.3343984592634375e+00 1.2833087342341823e-01 0.0000000000000000e+00  -1.4081374860041929e+00 1.4655992944956459e-01 0.0000000000000000e+00  -1.4911480113840199e+00 1.6957481202029484e-01 0.0000000000000000e+00  -1.5854082296395082e+00 1.9952411288667804e-01 0.0000000000000000e+00  -1.6932298354344739e+00 2.3995811758568331e-01 0.0000000000000000e+00  -1.8178531524059711e+00 2.9692767402761527e-01 0.0000000000000000e+00  -1.9596745550708101e+00 3.8145731653803500e-01 0.0000000000000000e+00  -2.1226321758977944e+00 5.1125794117785239e-01 0.0000000000000000e+00  -2.2584037630388840e+00 7.1412551300175975e-01 0.0000000000000000e+00  -2.4639300424186015e+00 1.0508184763437920e+00 0.0000000000000000e+00  -5.9775676301007452e-01 3.3493877667593008e-07 0.0000000000000000e+00  -5.9829357324551624e-01 1.1063560044438361e-03 0.0000000000000000e+00  -5.9865400088193099e-01 2.2159246762934069e-03 0.0000000000000000e+00  -5.9943645369358833e-01 3.3338073230003902e-03 0.0000000000000000e+00  -6.0053161238643027e-01 4.4666214547770203e-03 0.0000000000000000e+00  -6.0198455977731802e-01 5.6194531555661753e-03 0.0000000000000000e+00  -6.0381121938827031e-01 6.7974226839440481e-03 0.0000000000000000e+00  -6.0603533496182838e-01 8.0061569283721452e-03 0.0000000000000000e+00  -6.0868157402139500e-01 9.2513311518174351e-03 0.0000000000000000e+00  -6.1177678649065337e-01 1.0538924989825218e-02 0.0000000000000000e+00  -6.1534991618455182e-01 1.1875212374011001e-02 0.0000000000000000e+00  -6.1943211484955318e-01 1.3266826438385485e-02 0.0000000000000000e+00  -6.2405685383831000e-01 1.4720816122703657e-02 0.0000000000000000e+00  -6.2926005385054662e-01 1.6244711775736331e-02 0.0000000000000000e+00  -6.3508023578762474e-01 1.7846599480262307e-02 0.0000000000000000e+00  -6.4155869507292118e-01 1.9535206222276238e-02 0.0000000000000000e+00  -6.4873970315782248e-01 2.1319998393406776e-02 0.0000000000000000e+00  -6.5667074048996033e-01 2.3211296601358941e-02 0.0000000000000000e+00  -6.6540276614640848e-01 2.5220410486179096e-02 0.0000000000000000e+00  -6.7499053044556201e-01 2.7359798152294258e-02 0.0000000000000000e+00  -6.8549293823032831e-01 2.9643256016168996e-02 0.0000000000000000e+00  -6.9697347223030737e-01 3.2086146420802757e-02 0.0000000000000000e+00  -7.0950068805459154e-01 3.4705672405606541e-02 0.0000000000000000e+00  -7.2314879506145957e-01 3.7521211715085330e-02 0.0000000000000000e+00  -7.3799834075616710e-01 4.0554725725879301e-02 0.0000000000000000e+00  -7.5413702069077437e-01 4.3831263811950322e-02 0.0000000000000000e+00  -7.7166064135718992e-01 4.7379590247960415e-02 0.0000000000000000e+00  -7.9067427063870366e-01 5.1232969790183727e-02 0.0000000000000000e+00  -8.1129361949407608e-01 5.5430160630629513e-02 0.0000000000000000e+00  -8.3364671031669657e-01 6.0016681069148266e-02 0.0000000000000000e+00  -8.5787590264738034e-01 6.5046441373140959e-02 0.0000000000000000e+00  -8.8414036663923867e-01 7.0583868545515280e-02 0.0000000000000000e+00  -9.1261912010621393e-01 7.6706704781014587e-02 0.0000000000000000e+00  -9.4351477742284551e-01 8.3509739242013506e-02 0.0000000000000000e+00  -9.7705819915400471e-01 9.1109851862086602e-02 0.0000000000000000e+00  -1.0135142794672118e+00 9.9652930768561340e-02 0.0000000000000000e+00  -1.0531891619530682e+00 1.0932351075111704e-01 0.0000000000000000e+00  -1.0964392135647003e+00 1.2035843490650470e-01 0.0000000000000000e+00  -1.1436820997078518e+00 1.3306657775120939e-01 0.0000000000000000e+00  -1.1954100982443556e+00 1.4785787798034231e-01 0.0000000000000000e+00  -1.2522055260828870e+00 1.6528694241938657e-01 0.0000000000000000e+00  -1.3147557634359652e+00 1.8611984861732897e-01 0.0000000000000000e+00  -1.3838653952242637e+00 2.1143827037487758e-01 0.0000000000000000e+00  -1.4604392318936976e+00 2.4280382674607254e-01 0.0000000000000000e+00  -1.5454465770006938e+00 2.8251772151764748e-01 0.0000000000000000e+00  -1.6395827458788785e+00 3.3401195579187548e-01 0.0000000000000000e+00  -1.7432582353117090e+00 4.0243807828941786e-01 0.0000000000000000e+00  -1.8529030699952465e+00 4.9510165543055862e-01 0.0000000000000000e+00  -1.9681412766903437e+00 6.2155574574341899e-01 0.0000000000000000e+00  -2.0453448807364998e+00 7.9111218962566277e-01 0.0000000000000000e+00  -2.1687059478414170e+00 9.9062710618104288e-01 0.0000000000000000e+00  -5.9636707259254917e-01 3.4482154403036822e-07 0.0000000000000000e+00  -5.9703262144261493e-01 1.4664287235451360e-03 0.0000000000000000e+00  -5.9734911455117634e-01 2.9395510466914865e-03 0.0000000000000000e+00  -5.9812738807822208e-01 4.4259105064457576e-03 0.0000000000000000e+00  -5.9919980437202769e-01 5.9320103376554372e-03 0.0000000000000000e+00  -6.0062713377479238e-01 7.4644610636317695e-03 0.0000000000000000e+00  -6.0242109963004886e-01 9.0303947323052015e-03 0.0000000000000000e+00  -6.0460619385576608e-01 1.0637090222830849e-02 0.0000000000000000e+00  -6.0720658643002068e-01 1.2292088485160833e-02 0.0000000000000000e+00  -6.1024884974490068e-01 1.4003296537440585e-02 0.0000000000000000e+00  -6.1376153552750723e-01 1.5779012071101394e-02 0.0000000000000000e+00  -6.1777535044197862e-01 1.7628005373291060e-02 0.0000000000000000e+00  -6.2232324839482267e-01 1.9559590619902673e-02 0.0000000000000000e+00  -6.2744055284032119e-01 2.1583711292225360e-02 0.0000000000000000e+00  -6.3316509626091955e-01 2.3711036022283801e-02 0.0000000000000000e+00  -6.3953738075750144e-01 2.5953068483827859e-02 0.0000000000000000e+00  -6.4660076280250489e-01 2.8322274213629369e-02 0.0000000000000000e+00  -6.5440166571122815e-01 3.0832228093799135e-02 0.0000000000000000e+00  -6.6298982414483287e-01 3.3497787092798263e-02 0.0000000000000000e+00  -6.7241856579589399e-01 3.6335293979696225e-02 0.0000000000000000e+00  -6.8274513644303536e-01 3.9362819171802163e-02 0.0000000000000000e+00  -6.9403107581959311e-01 4.2600449747058948e-02 0.0000000000000000e+00  -7.0634265327082546e-01 4.6070637091257895e-02 0.0000000000000000e+00  -7.1975137403756351e-01 4.9798617851485642e-02 0.0000000000000000e+00  -7.3433456927116669e-01 5.3812927100482959e-02 0.0000000000000000e+00  -7.5017608563646987e-01 5.8146028260408836e-02 0.0000000000000000e+00  -7.6736709368430267e-01 6.2835091923536951e-02 0.0000000000000000e+00  -7.8600703815655515e-01 6.7922966004098306e-02 0.0000000000000000e+00  -8.0620475808618952e-01 7.3459393759660332e-02 0.0000000000000000e+00  -8.2807980995875674e-01 7.9502555730946042e-02 0.0000000000000000e+00  -8.5176403314466609e-01 8.6121038919018039e-02 0.0000000000000000e+00  -8.7740340278222639e-01 9.3396375035475696e-02 0.0000000000000000e+00  -9.0516022012360176e-01 1.0142634465654810e-01 0.0000000000000000e+00  -9.3521569150845685e-01 1.1032932348050954e-01 0.0000000000000000e+00  -9.6777293961017119e-01 1.2025006263715121e-01 0.0000000000000000e+00  -1.0030604637940674e+00 1.3136746543473898e-01 0.0000000000000000e+00  -1.0413360018332913e+00 1.4390517590354918e-01 0.0000000000000000e+00  -1.0828905968297444e+00 1.5814617181426691e-01 0.0000000000000000e+00  -1.1280523869114492e+00 1.7445311737936234e-01 0.0000000000000000e+00  -1.1771889606590917e+00 1.9329706023008306e-01 0.0000000000000000e+00  -1.2307061217417812e+00 2.1529824658276228e-01 0.0000000000000000e+00  -1.2890375152216191e+00 2.4128440353784697e-01 0.0000000000000000e+00  -1.3526183601390789e+00 2.7237361114933417e-01 0.0000000000000000e+00  -1.4218126766534511e+00 3.1008962061167572e-01 0.0000000000000000e+00  -1.4968024569417526e+00 3.5651350846642654e-01 0.0000000000000000e+00  -1.5771936712872281e+00 4.1445839946843405e-01 0.0000000000000000e+00  -1.6619317667064970e+00 4.8758929259312889e-01 0.0000000000000000e+00  -1.7465706684634856e+00 5.8025933211028846e-01 0.0000000000000000e+00  -1.8293398253136857e+00 6.9676000594086118e-01 0.0000000000000000e+00  -1.8790531405048825e+00 8.3735369468067145e-01 0.0000000000000000e+00  -1.9668840325412895e+00 9.9971871081236452e-01 0.0000000000000000e+00  -5.9462189836268176e-01 4.0118340751686847e-07 0.0000000000000000e+00  -5.9541362194339875e-01 1.8207100162421570e-03 0.0000000000000000e+00  -5.9568428622741887e-01 3.6496037446524568e-03 0.0000000000000000e+00  -5.9645373227979293e-01 5.4943489440505049e-03 0.0000000000000000e+00  -5.9749776310306435e-01 7.3633806827211514e-03 0.0000000000000000e+00  -5.9889228801454453e-01 9.2651880292606657e-03 0.0000000000000000e+00  -6.0064456672950717e-01 1.1208474437902348e-02 0.0000000000000000e+00  -6.0277992500876065e-01 1.3202195646221888e-02 0.0000000000000000e+00  -6.0532189768295452e-01 1.5255686259807074e-02 0.0000000000000000e+00  -6.0829671453631506e-01 1.7378695514199266e-02 0.0000000000000000e+00  -6.1173242794307348e-01 1.9581462066515887e-02 0.0000000000000000e+00  -6.1565918640092099e-01 2.1874799181171911e-02 0.0000000000000000e+00  -6.2010929387818103e-01 2.4270182345341569e-02 0.0000000000000000e+00  -6.2511732561366906e-01 2.6779851684255510e-02 0.0000000000000000e+00  -6.3072025298424972e-01 2.9416926646327342e-02 0.0000000000000000e+00  -6.3695758750779852e-01 3.2195537390643965e-02 0.0000000000000000e+00  -6.4387154526413692e-01 3.5130975956248797e-02 0.0000000000000000e+00  -6.5150723461219828e-01 3.8239871548162295e-02 0.0000000000000000e+00  -6.5991287045461855e-01 4.1540395167002336e-02 0.0000000000000000e+00  -6.6914001885572871e-01 4.5052500070395726e-02 0.0000000000000000e+00  -6.7924387647071438e-01 4.8798206147078048e-02 0.0000000000000000e+00  -6.9028358999481876e-01 5.2801938331135147e-02 0.0000000000000000e+00  -7.0232262169730619e-01 5.7090931825642711e-02 0.0000000000000000e+00  -7.1542916806561097e-01 6.1695720336560546e-02 0.0000000000000000e+00  -7.2967663963341700e-01 6.6650728003308651e-02 0.0000000000000000e+00  -7.45144