<?xml version="1.0"?>
<VTKFile type="UnstructuredGrid"  version="0.1"  >
<UnstructuredGrid>
<Piece  NumberOfPoints="2601" NumberOfCells="5000">
<Points>
<DataArray  type="Float64"  NumberOfComponents="3"  format="ascii">0 0 0  0.02 0 0  0.04 0 0  0.06 0 0  0.08 0 0  0.1 0 0  0.12 0 0  0.14 0 0  0.16 0 0  0.18 0 0  0.2 0 0  0.22 0 0  0.24 0 0  0.26 0 0  0.28 0 0  0.3 0 0  0.32 0 0  0.34 0 0  0.36 0 0  0.38 0 0  0.4 0 0  0.42 0 0  0.44 0 0  0.46 0 0  0.48 0 0  0.5 0 0  0.52 0 0  0.54 0 0  0.5600000000000001 0 0  0.58 0 0  0.6 0 0  0.62 0 0  0.64 0 0  0.66 0 0  0.68 0 0  0.7 0 0  0.72 0 0  0.74 0 0  0.76 0 0  0.78 0 0  0.8 0 0  0.82 0 0  0.84 0 0  0.86 0 0  0.88 0 0  0.9 0 0  0.92 0 0  0.9399999999999999 0 0  0.96 0 0  0.98 0 0  1 0 0  0 0.02 0  0.02 0.02 0  0.04 0.02 0  0.06 0.02 0  0.08 0.02 0  0.1 0.02 0  0.12 0.02 0  0.14 0.02 0  0.16 0.02 0  0.18 0.02 0  0.2 0.02 0  0.22 0.02 0  0.24 0.02 0  0.26 0.02 0  0.28 0.02 0  0.3 0.02 0  0.32 0.02 0  0.34 0.02 0  0.36 0.02 0  0.38 0.02 0  0.4 0.02 0  0.42 0.02 0  0.44 0.02 0  0.46 0.02 0  0.48 0.02 0  0.5 0.02 0  0.52 0.02 0  0.54 0.02 0  0.5600000000000001 0.02 0  0.58 0.02 0  0.6 0.02 0  0.62 0.02 0  0.64 0.02 0  0.66 0.02 0  0.68 0.02 0  0.7 0.02 0  0.72 0.02 0  0.74 0.02 0  0.76 0.02 0  0.78 0.02 0  0.8 0.02 0  0.82 0.02 0  0.84 0.02 0  0.86 0.02 0  0.88 0.02 0  0.9 0.02 0  0.92 0.02 0  0.9399999999999999 0.02 0  0.96 0.02 0  0.98 0.02 0  1 0.02 0  0 0.04 0  0.02 0.04 0  0.04 0.04 0  0.06 0.04 0  0.08 0.04 0  0.1 0.04 0  0.12 0.04 0  0.14 0.04 0  0.16 0.04 0  0.18 0.04 0  0.2 0.04 0  0.22 0.04 0  0.24 0.04 0  0.26 0.04 0  0.28 0.04 0  0.3 0.04 0  0.32 0.04 0  0.34 0.04 0  0.36 0.04 0  0.38 0.04 0  0.4 0.04 0  0.42 0.04 0  0.44 0.04 0  0.46 0.04 0  0.48 0.04 0  0.5 0.04 0  0.52 0.04 0  0.54 0.04 0  0.5600000000000001 0.04 0  0.58 0.04 0  0.6 0.04 0  0.62 0.04 0  0.64 0.04 0  0.66 0.04 0  0.68 0.04 0  0.7 0.04 0  0.72 0.04 0  0.74 0.04 0  0.76 0.04 0  0.78 0.04 0  0.8 0.04 0  0.82 0.04 0  0.84 0.04 0  0.86 0.04 0  0.88 0.04 0  0.9 0.04 0  0.92 0.04 0  0.9399999999999999 0.04 0  0.96 0.04 0  0.98 0.04 0  1 0.04 0  0 0.06 0  0.02 0.06 0  0.04 0.06 0  0.06 0.06 0  0.08 0.06 0  0.1 0.06 0  0.12 0.06 0  0.14 0.06 0  0.16 0.06 0  0.18 0.06 0  0.2 0.06 0  0.22 0.06 0  0.24 0.06 0  0.26 0.06 0  0.28 0.06 0  0.3 0.06 0  0.32 0.06 0  0.34 0.06 0  0.36 0.06 0  0.38 0.06 0  0.4 0.06 0  0.42 0.06 0  0.44 0.06 0  0.46 0.06 0  0.48 0.06 0  0.5 0.06 0  0.52 0.06 0  0.54 0.06 0  0.5600000000000001 0.06 0  0.58 0.06 0  0.6 0.06 0  0.62 0.06 0  0.64 0.06 0  0.66 0.06 0  0.68 0.06 0  0.7 0.06 0  0.72 0.06 0  0.74 0.06 0  0.76 0.06 0  0.78 0.06 0  0.8 0.06 0  0.82 0.06 0  0.84 0.06 0  0.86 0.06 0  0.88 0.06 0  0.9 0.06 0  0.92 0.06 0  0.9399999999999999 0.06 0  0.96 0.06 0  0.98 0.06 0  1 0.06 0  0 0.08 0  0.02 0.08 0  0.04 0.08 0  0.06 0.08 0  0.08 0.08 0  0.1 0.08 0  0.12 0.08 0  0.14 0.08 0  0.16 0.08 0  0.18 0.08 0  0.2 0.08 0  0.22 0.08 0  0.24 0.08 0  0.26 0.08 0  0.28 0.08 0  0.3 0.08 0  0.32 0.08 0  0.34 0.08 0  0.36 0.08 0  0.38 0.08 0  0.4 0.08 0  0.42 0.08 0  0.44 0.08 0  0.46 0.08 0  0.48 0.08 0  0.5 0.08 0  0.52 0.08 0  0.54 0.08 0  0.5600000000000001 0.08 0  0.58 0.08 0  0.6 0.08 0  0.62 0.08 0  0.64 0.08 0  0.66 0.08 0  0.68 0.08 0  0.7 0.08 0  0.72 0.08 0  0.74 0.08 0  0.76 0.08 0  0.78 0.08 0  0.8 0.08 0  0.82 0.08 0  0.84 0.08 0  0.86 0.08 0  0.88 0.08 0  0.9 0.08 0  0.92 0.08 0  0.9399999999999999 0.08 0  0.96 0.08 0  0.98 0.08 0  1 0.08 0  0 0.1 0  0.02 0.1 0  0.04 0.1 0  0.06 0.1 0  0.08 0.1 0  0.1 0.1 0  0.12 0.1 0  0.14 0.1 0  0.16 0.1 0  0.18 0.1 0  0.2 0.1 0  0.22 0.1 0  0.24 0.1 0  0.26 0.1 0  0.28 0.1 0  0.3 0.1 0  0.32 0.1 0  0.34 0.1 0  0.36 0.1 0  0.38 0.1 0  0.4 0.1 0  0.42 0.1 0  0.44 0.1 0  0.46 0.1 0  0.48 0.1 0  0.5 0.1 0  0.52 0.1 0  0.54 0.1 0  0.5600000000000001 0.1 0  0.58 0.1 0  0.6 0.1 0  0.62 0.1 0  0.64 0.1 0  0.66 0.1 0  0.68 0.1 0  0.7 0.1 0  0.72 0.1 0  0.74 0.1 0  0.76 0.1 0  0.78 0.1 0  0.8 0.1 0  0.82 0.1 0  0.84 0.1 0  0.86 0.1 0  0.88 0.1 0  0.9 0.1 0  0.92 0.1 0  0.9399999999999999 0.1 0  0.96 0.1 0  0.98 0.1 0  1 0.1 0  0 0.12 0  0.02 0.12 0  0.04 0.12 0  0.06 0.12 0  0.08 0.12 0  0.1 0.12 0  0.12 0.12 0  0.14 0.12 0  0.16 0.12 0  0.18 0.12 0  0.2 0.12 0  0.22 0.12 0  0.24 0.12 0  0.26 0.12 0  0.28 0.12 0  0.3 0.12 0  0.32 0.12 0  0.34 0.12 0  0.36 0.12 0  0.38 0.12 0  0.4 0.12 0  0.42 0.12 0  0.44 0.12 0  0.46 0.12 0  0.48 0.12 0  0.5 0.12 0  0.52 0.12 0  0.54 0.12 0  0.5600000000000001 0.12 0  0.58 0.12 0  0.6 0.12 0  0.62 0.12 0  0.64 0.12 0  0.66 0.12 0  0.68 0.12 0  0.7 0.12 0  0.72 0.12 0  0.74 0.12 0  0.76 0.12 0  0.78 0.12 0  0.8 0.12 0  0.82 0.12 0  0.84 0.12 0  0.86 0.12 0  0.88 0.12 0  0.9 0.12 0  0.92 0.12 0  0.9399999999999999 0.12 0  0.96 0.12 0  0.98 0.12 0  1 0.12 0  0 0.14 0  0.02 0.14 0  0.04 0.14 0  0.06 0.14 0  0.08 0.14 0  0.1 0.14 0  0.12 0.14 0  0.14 0.14 0  0.16 0.14 0  0.18 0.14 0  0.2 0.14 0  0.22 0.14 0  0.24 0.14 0  0.26 0.14 0  0.28 0.14 0  0.3 0.14 0  0.32 0.14 0  0.34 0.14 0  0.36 0.14 0  0.38 0.14 0  0.4 0.14 0  0.42 0.14 0  0.44 0.14 0  0.46 0.14 0  0.48 0.14 0  0.5 0.14 0  0.52 0.14 0  0.54 0.14 0  0.5600000000000001 0.14 0  0.58 0.14 0  0.6 0.14 0  0.62 0.14 0  0.64 0.14 0  0.66 0.14 0  0.68 0.14 0  0.7 0.14 0  0.72 0.14 0  0.74 0.14 0  0.76 0.14 0  0.78 0.14 0  0.8 0.14 0  0.82 0.14 0  0.84 0.14 0  0.86 0.14 0  0.88 0.14 0  0.9 0.14 0  0.92 0.14 0  0.9399999999999999 0.14 0  0.96 0.14 0  0.98 0.14 0  1 0.14 0  0 0.16 0  0.02 0.16 0  0.04 0.16 0  0.06 0.16 0  0.08 0.16 0  0.1 0.16 0  0.12 0.16 0  0.14 0.16 0  0.16 0.16 0  0.18 0.16 0  0.2 0.16 0  0.22 0.16 0  0.24 0.16 0  0.26 0.16 0  0.28 0.16 0  0.3 0.16 0  0.32 0.16 0  0.34 0.16 0  0.36 0.16 0  0.38 0.16 0  0.4 0.16 0  0.42 0.16 0  0.44 0.16 0  0.46 0.16 0  0.48 0.16 0  0.5 0.16 0  0.52 0.16 0  0.54 0.16 0  0.5600000000000001 0.16 0  0.58 0.16 0  0.6 0.16 0  0.62 0.16 0  0.64 0.16 0  0.66 0.16 0  0.68 0.16 0  0.7 0.16 0  0.72 0.16 0  0.74 0.16 0  0.76 0.16 0  0.78 0.16 0  0.8 0.16 0  0.82 0.16 0  0.84 0.16 0  0.86 0.16 0  0.88 0.16 0  0.9 0.16 0  0.92 0.16 0  0.9399999999999999 0.16 0  0.96 0.16 0  0.98 0.16 0  1 0.16 0  0 0.18 0  0.02 0.18 0  0.04 0.18 0  0.06 0.18 0  0.08 0.18 0  0.1 0.18 0  0.12 0.18 0  0.14 0.18 0  0.16 0.18 0  0.18 0.18 0  0.2 0.18 0  0.22 0.18 0  0.24 0.18 0  0.26 0.18 0  0.28 0.18 0  0.3 0.18 0  0.32 0.18 0  0.34 0.18 0  0.36 0.18 0  0.38 0.18 0  0.4 0.18 0  0.42 0.18 0  0.44 0.18 0  0.46 0.18 0  0.48 0.18 0  0.5 0.18 0  0.52 0.18 0  0.54 0.18 0  0.5600000000000001 0.18 0  0.58 0.18 0  0.6 0.18 0  0.62 0.18 0  0.64 0.18 0  0.66 0.18 0  0.68 0.18 0  0.7 0.18 0  0.72 0.18 0  0.74 0.18 0  0.76 0.18 0  0.78 0.18 0  0.8 0.18 0  0.82 0.18 0  0.84 0.18 0  0.86 0.18 0  0.88 0.18 0  0.9 0.18 0  0.92 0.18 0  0.9399999999999999 0.18 0  0.96 0.18 0  0.98 0.18 0  1 0.18 0  0 0.2 0  0.02 0.2 0  0.04 0.2 0  0.06 0.2 0  0.08 0.2 0  0.1 0.2 0  0.12 0.2 0  0.14 0.2 0  0.16 0.2 0  0.18 0.2 0  0.2 0.2 0  0.22 0.2 0  0.24 0.2 0  0.26 0.2 0  0.28 0.2 0  0.3 0.2 0  0.32 0.2 0  0.34 0.2 0  0.36 0.2 0  0.38 0.2 0  0.4 0.2 0  0.42 0.2 0  0.44 0.2 0  0.46 0.2 0  0.48 0.2 0  0.5 0.2 0  0.52 0.2 0  0.54 0.2 0  0.5600000000000001 0.2 0  0.58 0.2 0  0.6 0.2 0  0.62 0.2 0  0.64 0.2 0  0.66 0.2 0  0.68 0.2 0  0.7 0.2 0  0.72 0.2 0  0.74 0.2 0  0.76 0.2 0  0.78 0.2 0  0.8 0.2 0  0.82 0.2 0  0.84 0.2 0  0.86 0.2 0  0.88 0.2 0  0.9 0.2 0  0.92 0.2 0  0.9399999999999999 0.2 0  0.96 0.2 0  0.98 0.2 0  1 0.2 0  0 0.22 0  0.02 0.22 0  0.04 0.22 0  0.06 0.22 0  0.08 0.22 0  0.1 0.22 0  0.12 0.22 0  0.14 0.22 0  0.16 0.22 0  0.18 0.22 0  0.2 0.22 0  0.22 0.22 0  0.24 0.22 0  0.26 0.22 0  0.28 0.22 0  0.3 0.22 0  0.32 0.22 0  0.34 0.22 0  0.36 0.22 0  0.38 0.22 0  0.4 0.22 0  0.42 0.22 0  0.44 0.22 0  0.46 0.22 0  0.48 0.22 0  0.5 0.22 0  0.52 0.22 0  0.54 0.22 0  0.5600000000000001 0.22 0  0.58 0.22 0  0.6 0.22 0  0.62 0.22 0  0.64 0.22 0  0.66 0.22 0  0.68 0.22 0  0.7 0.22 0  0.72 0.22 0  0.74 0.22 0  0.76 0.22 0  0.78 0.22 0  0.8 0.22 0  0.82 0.22 0  0.84 0.22 0  0.86 0.22 0  0.88 0.22 0  0.9 0.22 0  0.92 0.22 0  0.9399999999999999 0.22 0  0.96 0.22 0  0.98 0.22 0  1 0.22 0  0 0.24 0  0.02 0.24 0  0.04 0.24 0  0.06 0.24 0  0.08 0.24 0  0.1 0.24 0  0.12 0.24 0  0.14 0.24 0  0.16 0.24 0  0.18 0.24 0  0.2 0.24 0  0.22 0.24 0  0.24 0.24 0  0.26 0.24 0  0.28 0.24 0  0.3 0.24 0  0.32 0.24 0  0.34 0.24 0  0.36 0.24 0  0.38 0.24 0  0.4 0.24 0  0.42 0.24 0  0.44 0.24 0  0.46 0.24 0  0.48 0.24 0  0.5 0.24 0  0.52 0.24 0  0.54 0.24 0  0.5600000000000001 0.24 0  0.58 0.24 0  0.6 0.24 0  0.62 0.24 0  0.64 0.24 0  0.66 0.24 0  0.68 0.24 0  0.7 0.24 0  0.72 0.24 0  0.74 0.24 0  0.76 0.24 0  0.78 0.24 0  0.8 0.24 0  0.82 0.24 0  0.84 0.24 0  0.86 0.24 0  0.88 0.24 0  0.9 0.24 0  0.92 0.24 0  0.9399999999999999 0.24 0  0.96 0.24 0  0.98 0.24 0  1 0.24 0  0 0.26 0  0.02 0.26 0  0.04 0.26 0  0.06 0.26 0  0.08 0.26 0  0.1 0.26 0  0.12 0.26 0  0.14 0.26 0  0.16 0.26 0  0.18 0.26 0  0.2 0.26 0  0.22 0.26 0  0.24 0.26 0  0.26 0.26 0  0.28 0.26 0  0.3 0.26 0  0.32 0.26 0  0.34 0.26 0  0.36 0.26 0  0.38 0.26 0  0.4 0.26 0  0.42 0.26 0  0.44 0.26 0  0.46 0.26 0  0.48 0.26 0  0.5 0.26 0  0.52 0.26 0  0.54 0.26 0  0.5600000000000001 0.26 0  0.58 0.26 0  0.6 0.26 0  0.62 0.26 0  0.64 0.26 0  0.66 0.26 0  0.68 0.26 0  0.7 0.26 0  0.72 0.26 0  0.74 0.26 0  0.76 0.26 0  0.78 0.26 0  0.8 0.26 0  0.82 0.26 0  0.84 0.26 0  0.86 0.26 0  0.88 0.26 0  0.9 0.26 0  0.92 0.26 0  0.9399999999999999 0.26 0  0.96 0.26 0  0.98 0.26 0  1 0.26 0  0 0.28 0  0.02 0.28 0  0.04 0.28 0  0.06 0.28 0  0.08 0.28 0  0.1 0.28 0  0.12 0.28 0  0.14 0.28 0  0.16 0.28 0  0.18 0.28 0  0.2 0.28 0  0.22 0.28 0  0.24 0.28 0  0.26 0.28 0  0.28 0.28 0  0.3 0.28 0  0.32 0.28 0  0.34 0.28 0  0.36 0.28 0  0.38 0.28 0  0.4 0.28 0  0.42 0.28 0  0.44 0.28 0  0.46 0.28 0  0.48 0.28 0  0.5 0.28 0  0.52 0.28 0  0.54 0.28 0  0.5600000000000001 0.28 0  0.58 0.28 0  0.6 0.28 0  0.62 0.28 0  0.64 0.28 0  0.66 0.28 0  0.68 0.28 0  0.7 0.28 0  0.72 0.28 0  0.74 0.28 0  0.76 0.28 0  0.78 0.28 0  0.8 0.28 0  0.82 0.28 0  0.84 0.28 0  0.86 0.28
[...]
<PointData  Vectors="f_302"> 
<DataArray  type="Float64"  Name="f_302"  NumberOfComponents="3" format="ascii">-5.6800776211625026e-01 -2.4135672737275733e-05 0.0000000000000000e+00  -5.6822157198613255e-01 1.0886537225561237e-04 0.0000000000000000e+00  -5.6873607387226888e-01 2.1071361787938355e-04 0.0000000000000000e+00  -5.6962186743044863e-01 3.1641248162059987e-04 0.0000000000000000e+00  -5.7089986296577000e-01 4.2348755924450856e-04 0.0000000000000000e+00  -5.7259245663197622e-01 5.3240229029080134e-04 0.0000000000000000e+00  -5.7472499702163771e-01 6.4378149061669512e-04 0.0000000000000000e+00  -5.7732441109978128e-01 7.5814079344192092e-04 0.0000000000000000e+00  -5.8041950707680368e-01 8.7604045599192360e-04 0.0000000000000000e+00  -5.8404102442109118e-01 9.9806356427290031e-04 0.0000000000000000e+00  -5.8822172020373920e-01 1.1248237800783316e-03 0.0000000000000000e+00  -5.9299647706154224e-01 1.2569708644837967e-03 0.0000000000000000e+00  -5.9840242886594652e-01 1.3951963926053898e-03 0.0000000000000000e+00  -6.0447910795005377e-01 1.5402403323242582e-03 0.0000000000000000e+00  -6.1126861639744989e-01 1.6928984926381115e-03 0.0000000000000000e+00  -6.1881582488501108e-01 1.8540310910150801e-03 0.0000000000000000e+00  -6.2716860336267488e-01 2.0245726918389343e-03 0.0000000000000000e+00  -6.3637808881764824e-01 2.2055438283278888e-03 0.0000000000000000e+00  -6.4649899657016130e-01 2.3980646959297740e-03 0.0000000000000000e+00  -6.5758998304149563e-01 2.6033714040442917e-03 0.0000000000000000e+00  -6.6971406981878845e-01 2.8228354023027923e-03 0.0000000000000000e+00  -6.8293914123242816e-01 3.0579868677297916e-03 0.0000000000000000e+00  -6.9733853072299223e-01 3.3105430637607484e-03 0.0000000000000000e+00  -7.1299171522999671e-01 3.5824429836006826e-03 0.0000000000000000e+00  -7.2998514198013142e-01 3.8758899950343414e-03 0.0000000000000000e+00  -7.4841321881962553e-01 4.1934047567243277e-03 0.0000000000000000e+00  -7.6837950821370371e-01 4.5378914370054922e-03 0.0000000000000000e+00  -7.8999817708034692e-01 4.9127213276156873e-03 0.0000000000000000e+00  -8.1339577096527838e-01 5.3218394452676857e-03 0.0000000000000000e+00  -8.3871340351096679e-01 5.7699018640226659e-03 0.0000000000000000e+00  -8.6610948341939020e-01 6.2624546531401658e-03 0.0000000000000000e+00  -8.9576314524990952e-01 6.8061699317111118e-03 0.0000000000000000e+00  -9.2787861377216074e-01 7.4091615471449735e-03 0.0000000000000000e+00  -9.6269082413244711e-01 8.0814136612030636e-03 0.0000000000000000e+00  -1.0004727581837303e+00 8.8353725058507946e-03 0.0000000000000000e+00  -1.0415451665788329e+00 9.6867790214807924e-03 0.0000000000000000e+00  -1.0862896763870036e+00 1.0655865805252083e-02 0.0000000000000000e+00  -1.1351667973242929e+00 1.1769120165554205e-02 0.0000000000000000e+00  -1.1887412527529653e+00 1.3061956845163352e-02 0.0000000000000000e+00  -1.2477183602259549e+00 1.4582903925839935e-02 0.0000000000000000e+00  -1.3129985803189994e+00 1.6400427849643132e-02 0.0000000000000000e+00  -1.3857594279636034e+00 1.8614745491046292e-02 0.0000000000000000e+00  -1.4675952660640426e+00 2.1379030909199830e-02 0.0000000000000000e+00  -1.5607194248689886e+00 2.4943304702817339e-02 0.0000000000000000e+00  -1.6685039704452231e+00 2.9767784895361193e-02 0.0000000000000000e+00  -1.7956459912839384e+00 3.6695616839932541e-02 0.0000000000000000e+00  -1.9534837934118761e+00 4.8572884622659782e-02 0.0000000000000000e+00  -2.1495205608434373e+00 7.2216887380301908e-02 0.0000000000000000e+00  -2.4607945864467529e+00 1.3586051167464105e-01 0.0000000000000000e+00  -2.9743459694028100e+00 4.5900857004202655e-01 0.0000000000000000e+00  -3.7976583085021804e+00 1.3368003022905526e+00 0.0000000000000000e+00  -5.6777059796727680e-01 7.4932877279406402e-06 0.0000000000000000e+00  -5.6805612332125321e-01 3.5641313019146479e-04 0.0000000000000000e+00  -5.6855055231748264e-01 6.8802690420515596e-04 0.0000000000000000e+00  -5.6943783719263985e-01 1.0302371348219605e-03 0.0000000000000000e+00  -5.7071269415846937e-01 1.3752394946742869e-03 0.0000000000000000e+00  -5.7240156273483411e-01 1.7266884793903897e-03 0.0000000000000000e+00  -5.7452947697493983e-01 2.0859988500673225e-03 0.0000000000000000e+00  -5.7712330779607368e-01 2.4548976853314220e-03 0.0000000000000000e+00  -5.8021184014530081e-01 2.8351706565637935e-03 0.0000000000000000e+00  -5.8382576240320450e-01 3.2286796779405985e-03 0.0000000000000000e+00  -5.8799777494165661e-01 3.6373869932451266e-03 0.0000000000000000e+00  -5.9276269386159453e-01 4.0633700987693549e-03 0.0000000000000000e+00  -5.9815757587253426e-01 4.5088407009046868e-03 0.0000000000000000e+00  -6.0422186420391011e-01 4.9761656589837775e-03 0.0000000000000000e+00  -6.1099755816234413e-01 5.4678908271451627e-03 0.0000000000000000e+00  -6.1852940987019356e-01 5.9867684814542124e-03 0.0000000000000000e+00  -6.2686515235750939e-01 6.5357891359079595e-03 0.0000000000000000e+00  -6.3605576414770371e-01 7.1182187485106145e-03 0.0000000000000000e+00  -6.4615577663764534e-01 7.7376425570309425e-03 0.0000000000000000e+00  -6.5722363202172984e-01 8.3980171002410176e-03 0.0000000000000000e+00  -6.6932210133386150e-01 9.1037323935786521e-03 0.0000000000000000e+00  -6.8251877449370379e-01 9.8596867704292355e-03 0.0000000000000000e+00  -6.9688663719611565e-01 1.0671377617727363e-02 0.0000000000000000e+00  -7.1250475328852103e-01 1.1545012192852127e-02 0.0000000000000000e+00  -7.2945907622047401e-01 1.2487643999274239e-02 0.0000000000000000e+00  -7.4784341962263035e-01 1.3507341955393793e-02 0.0000000000000000e+00  -7.6776062563577985e-01 1.4613402009805423e-02 0.0000000000000000e+00  -7.8932398105083768e-01 1.5816614225000865e-02 0.0000000000000000e+00  -8.1265894677772565e-01 1.7129603106737726e-02 0.0000000000000000e+00  -8.3790528728793834e-01 1.8567265761557906e-02 0.0000000000000000e+00  -8.6521971592630698e-01 2.0147342355493994e-02 0.0000000000000000e+00  -8.9477921304422336e-01 2.1891167961006965e-02 0.0000000000000000e+00  -9.2678523241515498e-01 2.3824676870465883e-02 0.0000000000000000e+00  -9.6146909611954856e-01 2.5979764214878479e-02 0.0000000000000000e+00  -9.9909900309707267e-01 2.8396162713261775e-02 0.0000000000000000e+00  -1.0399892642660724e+00 3.1124077608662731e-02 0.0000000000000000e+00  -1.0845126666736771e+00 3.4227963747414818e-02 0.0000000000000000e+00  -1.1331173203818186e+00 3.7792069084463364e-02 0.0000000000000000e+00  -1.1863500885402920e+00 4.1928793358424754e-02 0.0000000000000000e+00  -1.2448898703269313e+00 4.6791689252285017e-02 0.0000000000000000e+00  -1.3095963193570281e+00 5.2596447935661442e-02 0.0000000000000000e+00  -1.3815824014887244e+00 5.9656203705871803e-02 0.0000000000000000e+00  -1.4623295594417058e+00 6.8444130398489955e-02 0.0000000000000000e+00  -1.5538645815068017e+00 7.9712342427831318e-02 0.0000000000000000e+00  -1.6590808098481367e+00 9.4722825464232510e-02 0.0000000000000000e+00  -1.7822148299217233e+00 1.1579502579271972e-01 0.0000000000000000e+00  -1.9300049865911966e+00 1.4750844746978303e-01 0.0000000000000000e+00  -2.1105716537931576e+00 1.9891517099625949e-01 0.0000000000000000e+00  -2.3525935392681738e+00 2.9842027764373763e-01 0.0000000000000000e+00  -2.5718010488642364e+00 4.7009982447066034e-01 0.0000000000000000e+00  -3.0613220350593622e+00 8.6712416404348658e-01 0.0000000000000000e+00  -5.6711187938177432e-01 -9.9961907731043163e-07 0.0000000000000000e+00  -5.6753005839488513e-01 7.2799540917695745e-04 0.0000000000000000e+00  -5.6799416937091862e-01 1.4672480592470927e-03 0.0000000000000000e+00  -5.6888170795144388e-01 2.2138291590643980e-03 0.0000000000000000e+00  -5.7014657827066517e-01 2.9689796665413443e-03 0.0000000000000000e+00  -5.7182433340469796e-01 3.7380166585933177e-03 0.0000000000000000e+00  -5.7393816045619417e-01 4.5239606145122783e-03 0.0000000000000000e+00  -5.7651510354565305e-01 5.3306674172403879e-03 0.0000000000000000e+00  -5.7958380181130964e-01 6.1619915904704316e-03 0.0000000000000000e+00  -5.8317479662767691e-01 7.0219881406059850e-03 0.0000000000000000e+00  -5.8732061719804229e-01 7.9149238725325349e-03 0.0000000000000000e+00  -5.9205587880877408e-01 8.8453145878314710e-03 0.0000000000000000e+00  -5.9741740593044457e-01 9.8179655218032739e-03 0.0000000000000000e+00  -6.0344437368932369e-01 1.0838016179336777e-02 0.0000000000000000e+00  -6.1017847230452793e-01 1.1910991528605478e-02 0.0000000000000000e+00  -6.1766409750184248e-01 1.3042860781111016e-02 0.0000000000000000e+00  -6.2594857085064204e-01 1.4240105502223195e-02 0.0000000000000000e+00  -6.3508239483369533e-01 1.5509799152667401e-02 0.0000000000000000e+00  -6.4511954851188780e-01 1.6859700669308669e-02 0.0000000000000000e+00  -6.5611783096564713e-01 1.8298365353422497e-02 0.0000000000000000e+00  -6.6813926134270107e-01 1.9835277191987556e-02 0.0000000000000000e+00  -6.8125054642077865e-01 2.1481007862217176e-02 0.0000000000000000e+00  -6.9552362922663891e-01 2.3247409151422881e-02 0.0000000000000000e+00  -7.1103633562075097e-01 2.5147847495996901e-02 0.0000000000000000e+00  -7.2787314008715831e-01 2.7197491988950100e-02 0.0000000000000000e+00  -7.4612607758630045e-01 2.9413670791738421e-02 0.0000000000000000e+00  -7.6589583567409258e-01 3.1816315797019656e-02 0.0000000000000000e+00  -7.8729307077785671e-01 3.4428522194183984e-02 0.0000000000000000e+00  -8.1044000541184769e-01 3.7277259133248523e-02 0.0000000000000000e+00  -8.3547238043808758e-01 4.0394281246598829e-02 0.0000000000000000e+00  -8.6254185998789756e-01 4.3817310342529961e-02 0.0000000000000000e+00  -8.9181901890265203e-01 4.7591585213498495e-02 0.0000000000000000e+00  -9.2349708726055313e-01 5.1771920123355700e-02 0.0000000000000000e+00  -9.5779668920684691e-01 5.6425477156410893e-02 0.0000000000000000e+00  -9.9497190221600817e-01 6.1635557537135163e-02 0.0000000000000000e+00  -1.0353180898500722e+00 6.7506874933837183e-02 0.0000000000000000e+00  -1.0791821462499838e+00 7.4173029261677875e-02 0.0000000000000000e+00  -1.1269760533290141e+00 8.1807323704389145e-02 0.0000000000000000e+00  -1.1791950596173884e+00 9.0638792089370299e-02 0.0000000000000000e+00  -1.2364422739275618e+00 1.0097657954138411e-01 0.0000000000000000e+00  -1.2994625307048326e+00 1.1324813779325663e-01 0.0000000000000000e+00  -1.3691881138730717e+00 1.2806104162706572e-01 0.0000000000000000e+00  -1.4468046139701087e+00 1.4630684645623313e-01 0.0000000000000000e+00  -1.5338226010897242e+00 1.6934123311433610e-01 0.0000000000000000e+00  -1.6322209944651647e+00 1.9931297596539527e-01 0.0000000000000000e+00  -1.7443177761291599e+00 2.3977256127696747e-01 0.0000000000000000e+00  -1.8733391971023186e+00 2.9677106775367668e-01 0.0000000000000000e+00  -2.0197436839098786e+00 3.8133331109460161e-01 0.0000000000000000e+00  -2.1872513445418376e+00 5.1117055922585741e-01 0.0000000000000000e+00  -2.3283463719374877e+00 7.1407924290092917e-01 0.0000000000000000e+00  -2.5370295042529465e+00 1.0508181980395062e+00 0.0000000000000000e+00  -5.6610017655051315e-01 3.3563313015437389e-07 0.0000000000000000e+00  -5.6664981082771593e-01 1.0893492144971868e-03 0.0000000000000000e+00  -5.6707074186804618e-01 2.1820267290834556e-03 0.0000000000000000e+00  -5.6795691071438914e-01 3.2830998779675956e-03 0.0000000000000000e+00  -5.6920531767574867e-01 4.3991405036837867e-03 0.0000000000000000e+00  -5.7086472898136775e-01 5.5351766026678012e-03 0.0000000000000000e+00  -5.7295514864508224e-01 6.6962901646165449e-03 0.0000000000000000e+00  -5.7550411362530740e-01 7.8880817904834130e-03 0.0000000000000000e+00  -5.7853993544486149e-01 9.1162144395158049e-03 0.0000000000000000e+00  -5.8209293240992155e-01 1.0386664204303528e-02 0.0000000000000000e+00  -5.8619534767410597e-01 1.1705710419977332e-02 0.0000000000000000e+00  -5.9088146608167924e-01 1.3079999376940220e-02 0.0000000000000000e+00  -5.9618772998799874e-01 1.4516600527516580e-02 0.0000000000000000e+00  -6.0215287375562299e-01 1.6023071794686320e-02 0.0000000000000000e+00  -6.0881807991182924e-01 1.7607533740275974e-02 0.0000000000000000e+00  -6.1622715928822402e-01 1.9278754654043030e-02 0.0000000000000000e+00  -6.2442675882334819e-01 2.1046249024261224e-02 0.0000000000000000e+00  -6.3346660127515908e-01 2.2920392347644758e-02 0.0000000000000000e+00  -6.4339976201451188e-01 2.4912555964664573e-02 0.0000000000000000e+00  -6.5428298918265826e-01 2.7035266523727036e-02 0.0000000000000000e+00  -6.6617707487179056e-01 2.9302395868821104e-02 0.0000000000000000e+00  -6.7914728670228430e-01 3.1729388698692747e-02 0.0000000000000000e+00  -6.9326387131254785e-01 3.4333537383530954e-02 0.0000000000000000e+00  -7.0860264397145545e-01 3.7134316020807481e-02 0.0000000000000000e+00  -7.2524568192698546e-01 4.0153789408262523e-02 0.0000000000000000e+00  -7.4328214342597920e-01 4.3417117452116419e-02 0.0000000000000000e+00  -7.6280923985797133e-01 4.6953182109802739e-02 0.0000000000000000e+00  -7.8393339554862362e-01 5.0795373005509459e-02 0.0000000000000000e+00  -8.0677163883671243e-01 5.4982580412971563e-02 0.0000000000000000e+00  -8.3145327983777295e-01 5.9560461950117619e-02 0.0000000000000000e+00  -8.5812194553259402e-01 6.4583074454440920e-02 0.0000000000000000e+00  -8.8693806254001839e-01 7.0114998760007777e-02 0.0000000000000000e+00  -9.1808190336554496e-01 7.6234138156838466e-02 0.0000000000000000e+00  -9.5175734435632109e-01 8.3035450165060531e-02 0.0000000000000000e+00  -9.8819652419901538e-01 9.0635990335294583e-02 0.0000000000000000e+00  -1.0276656399945194e+00 9.9181829670977495e-02 0.0000000000000000e+00  -1.0704721714317311e+00 1.0885769310793651e-01 0.0000000000000000e+00  -1.1169738629951191e+00 1.1990062119384430e-01 0.0000000000000000e+00  -1.1675898062380325e+00 1.3261969328023623e-01 0.0000000000000000e+00  -1.2228137634785656e+00 1.4742506043875706e-01 0.0000000000000000e+00  -1.2832295929616939e+00 1.6487154970297388e-01 0.0000000000000000e+00  -1.3495263114511689e+00 1.8572546717466903e-01 0.0000000000000000e+00  -1.4225101228797805e+00 2.1106872443530969e-01 0.0000000000000000e+00  -1.5030878893559338e+00 2.4246318904357525e-01 0.0000000000000000e+00  -1.5922297378479469e+00 2.8221032647393374e-01 0.0000000000000000e+00  -1.6906368191255365e+00 3.3374241662248505e-01 0.0000000000000000e+00  -1.7987070701197678e+00 4.0221130951535444e-01 0.0000000000000000e+00  -1.9129275404406534e+00 4.9492290148859253e-01 0.0000000000000000e+00  -2.0327175339270216e+00 6.2143060775971959e-01 0.0000000000000000e+00  -2.1152301047516264e+00 7.9104659945654154e-01 0.0000000000000000e+00  -2.2417350611599760e+00 9.9062737189490546e-01 0.0000000000000000e+00  -5.6473150533405070e-01 3.4493998649664566e-07 0.0000000000000000e+00  -5.6540798169547135e-01 1.4443308660958916e-03 0.0000000000000000e+00  -5.6578541317378050e-01 2.8953688091504963e-03 0.0000000000000000e+00  -5.6666727662493932e-01 4.3596356266896244e-03 0.0000000000000000e+00  -5.6789300178484814e-01 5.8436018114386146e-03 0.0000000000000000e+00  -5.6952685771785061e-01 7.3538383163571494e-03 0.0000000000000000e+00  -5.7158468600793477e-01 8.8974458891353976e-03 0.0000000000000000e+00  -5.7409474707570829e-01 1.0481680876174203e-02 0.0000000000000000e+00  -5.7708484786750358e-01 1.2114072581141985e-02 0.0000000000000000e+00  -5.8058501846314492e-01 1.3802526695027493e-02 0.0000000000000000e+00  -5.8462710109279381e-01 1.5555349864632030e-02 0.0000000000000000e+00  -5.8924492693300512e-01 1.7381330938430750e-02 0.0000000000000000e+00  -5.9447441265655154e-01 1.9289812059220358e-02 0.0000000000000000e+00  -6.0035368731989913e-01 2.1290773863236419e-02 0.0000000000000000e+00  -6.0692323706781159e-01 2.3394931223077647e-02 0.0000000000000000e+00  -6.1422607148717268e-01 2.5613843087942446e-02 0.0000000000000000e+00  -6.2230791462008417e-01 2.7960039295826040e-02 0.0000000000000000e+00  -6.3121742415530646e-01 3.0447168074644849e-02 0.0000000000000000e+00  -6.4100644307587795e-01 3.3090168820741776e-02 0.0000000000000000e+00  -6.5173028887974938e-01 3.5905475863394334e-02 0.0000000000000000e+00  -6.6344808652576670e-01 3.8911260370734918e-02 0.0000000000000000e+00  -6.7622315251390253e-01 4.2127719424888216e-02 0.0000000000000000e+00  -6.9012343903867912e-01 4.5577423734162473e-02 0.0000000000000000e+00  -7.0522204901640073e-01 4.9285738650903632e-02 0.0000000000000000e+00  -7.2159783505324027e-01 5.3281337398224653e-02 0.0000000000000000e+00  -7.3933609817241919e-01 5.7596831052477433e-02 0.0000000000000000e+00  -7.5852940544242276e-01 6.2269547416999131e-02 0.0000000000000000e+00  -7.7927854963042553e-01 6.7342501220531481e-02 0.0000000000000000e+00  -8.0169367870244068e-01 7.2865612176991917e-02 0.0000000000000000e+00  -8.2589562839721742e-01 7.8897246954968969e-02 0.0000000000000000e+00  -8.5201749704260266e-01 8.5506188374828276e-02 0.0000000000000000e+00  -8.8020650775447440e-01 9.2774173668961596e-02 0.0000000000000000e+00  -9.1062620798997540e-01 1.0079919863644743e-01 0.0000000000000000e+00  -9.4345905758167570e-01 1.0969986389274725e-01 0.0000000000000000e+00  -9.7890944885329756e-01 1.1962115516575732e-01 0.0000000000000000e+00  -1.0172071756362058e+00 1.3074222002813773e-01 0.0000000000000000e+00  -1.0586113033235274e+00 1.4328695643225245e-01 0.0000000000000000e+00  -1.1034142440324204e+00 1.5753860573753056e-01 0.0000000000000000e+00  -1.1519455534205971e+00 1.7386010545576217e-01 0.0000000000000000e+00  -1.2045742957513645e+00 1.9272278633357837e-01 0.0000000000000000e+00  -1.2617078068055692e+00 2.1474718772486107e-01 0.0000000000000000e+00  -1.3237813588331151e+00 2.4076134025309845e-01 0.0000000000000000e+00  -1.3912317778197254e+00 2.7188363847500524e-01 0.0000000000000000e+00  -1.4644251289138284e+00 3.0963815998049993e-01 0.0000000000000000e+00  -1.5435441921023576e+00 3.5610632086378702e-01 0.0000000000000000e+00  -1.6282008298480761e+00 4.1410160009206787e-01 0.0000000000000000e+00  -1.7173276862997156e+00 4.8728936640312315e-01 0.0000000000000000e+00  -1.8065361834723330e+00 5.8002314769920527e-01 0.0000000000000000e+00  -1.8938507532010294e+00 6.9659481756348796e-01 0.0000000000000000e+00  -1.9488625272468705e+00 8.3726712966679240e-01 0.0000000000000000e+00  -2.0398461675606128e+00 9.9971861383346738e-01 0.0000000000000000e+00  -5.6301244941118012e-01 3.9947338128685628e-07 0.0000000000000000e+00  -5.6381324489616991e-01 1.7935064378108174e-03 0.0000000000000000e+00  -5.6414536607321131e-01 3.5951700968668092e-03 0.0000000000000000e+00  -5.6501831728834262e-01 5.4126255931590045e-03 0.0000000000000000e+00  -5.6621577869761819e-01 7.2542701133294528e-03 0.0000000000000000e+00  -5.6781694603056954e-01 9.1285554127607839e-03 0.0000000000000000e+00  -5.6983324035199234e-01 1.1044154628997457e-02 0.0000000000000000e+00  -5.7229373217114543e-01 1.3010002490463204e-02 0.0000000000000000e+00  -5.7522558582544947e-01 1.5035423734007328e-02 0.0000000000000000e+00  -5.7865847695061945e-01 1.7130169085227142e-02 0.0000000000000000e+00  -5.8262373805102197e-01 1.9304490137904303e-02 0.0000000000000000e+00  -5.8715463165562454e-01 2.1569224431528453e-02 0.0000000000000000e+00  -5.9228641425718920e-01 2.3935883014201343e-02 0.0000000000000000e+00  -5.9805645653533335e-01 2.6416752772678388e-02 0.0000000000000000e+00  -6.0450437341673369e-01 2.9025011092535059e-02 0.0000000000000000e+00  -6.1167217379898176e-01 3.1774857244344888e-02 0.0000000000000000e+00  -6.1960443120350450e-01 3.4681663580698213e-02 0.0000000000000000e+00  -6.2834847819230788e-01 3.7762150869765358e-02 0.0000000000000000e+00  -6.3795462776337863e-01 4.1034592987622728e-02 0.0000000000000000e+00  -6.4847642549407758e-01 4.4519057452691579e-02 0.0000000000000000e+00  -6.5997093685609054e-01 4.8237689879850484e-02 0.0000000000000000e+00  -6.7249907487333771e-01 5.2215052478388306e-02 0.0000000000000000e+00  -6.8612597415162369e-01 5.6478529360532173e-02 0.0000000000000000e+00  -7.0092141826821364e-01 6.1058814859159490e-02 0.0000000000000000e+00  -7.1696032855659309e-01 6.5990505538969749e-02 0.0000000000000000e+00  -7.34323