<?xml version="1.0"?>
<VTKFile type="UnstructuredGrid"  version="0.1"  >
<UnstructuredGrid>
<Piece  NumberOfPoints="2601" NumberOfCells="5000">
<Points>
<DataArray  type="Float64"  NumberOfComponents="3"  format="ascii">0 0 0  0.02 0 0  0.04 0 0  0.06 0 0  0.08 0 0  0.1 0 0  0.12 0 0  0.14 0 0  0.16 0 0  0.18 0 0  0.2 0 0  0.22 0 0  0.24 0 0  0.26 0 0  0.28 0 0  0.3 0 0  0.32 0 0  0.34 0 0  0.36 0 0  0.38 0 0  0.4 0 0  0.42 0 0  0.44 0 0  0.46 0 0  0.48 0 0  0.5 0 0  0.52 0 0  0.54 0 0  0.5600000000000001 0 0  0.58 0 0  0.6 0 0  0.62 0 0  0.64 0 0  0.66 0 0  0.68 0 0  0.7 0 0  0.72 0 0  0.74 0 0  0.76 0 0  0.78 0 0  0.8 0 0  0.82 0 0  0.84 0 0  0.86 0 0  0.88 0 0  0.9 0 0  0.92 0 0  0.9399999999999999 0 0  0.96 0 0  0.98 0 0  1 0 0  0 0.02 0  0.02 0.02 0  0.04 0.02 0  0.06 0.02 0  0.08 0.02 0  0.1 0.02 0  0.12 0.02 0  0.14 0.02 0  0.16 0.02 0  0.18 0.02 0  0.2 0.02 0  0.22 0.02 0  0.24 0.02 0  0.26 0.02 0  0.28 0.02 0  0.3 0.02 0  0.32 0.02 0  0.34 0.02 0  0.36 0.02 0  0.38 0.02 0  0.4 0.02 0  0.42 0.02 0  0.44 0.02 0  0.46 0.02 0  0.48 0.02 0  0.5 0.02 0  0.52 0.02 0  0.54 0.02 0  0.5600000000000001 0.02 0  0.58 0.02 0  0.6 0.02 0  0.62 0.02 0  0.64 0.02 0  0.66 0.02 0  0.68 0.02 0  0.7 0.02 0  0.72 0.02 0  0.74 0.02 0  0.76 0.02 0  0.78 0.02 0  0.8 0.02 0  0.82 0.02 0  0.84 0.02 0  0.86 0.02 0  0.88 0.02 0  0.9 0.02 0  0.92 0.02 0  0.9399999999999999 0.02 0  0.96 0.02 0  0.98 0.02 0  1 0.02 0  0 0.04 0  0.02 0.04 0  0.04 0.04 0  0.06 0.04 0  0.08 0.04 0  0.1 0.04 0  0.12 0.04 0  0.14 0.04 0  0.16 0.04 0  0.18 0.04 0  0.2 0.04 0  0.22 0.04 0  0.24 0.04 0  0.26 0.04 0  0.28 0.04 0  0.3 0.04 0  0.32 0.04 0  0.34 0.04 0  0.36 0.04 0  0.38 0.04 0  0.4 0.04 0  0.42 0.04 0  0.44 0.04 0  0.46 0.04 0  0.48 0.04 0  0.5 0.04 0  0.52 0.04 0  0.54 0.04 0  0.5600000000000001 0.04 0  0.58 0.04 0  0.6 0.04 0  0.62 0.04 0  0.64 0.04 0  0.66 0.04 0  0.68 0.04 0  0.7 0.04 0  0.72 0.04 0  0.74 0.04 0  0.76 0.04 0  0.78 0.04 0  0.8 0.04 0  0.82 0.04 0  0.84 0.04 0  0.86 0.04 0  0.88 0.04 0  0.9 0.04 0  0.92 0.04 0  0.9399999999999999 0.04 0  0.96 0.04 0  0.98 0.04 0  1 0.04 0  0 0.06 0  0.02 0.06 0  0.04 0.06 0  0.06 0.06 0  0.08 0.06 0  0.1 0.06 0  0.12 0.06 0  0.14 0.06 0  0.16 0.06 0  0.18 0.06 0  0.2 0.06 0  0.22 0.06 0  0.24 0.06 0  0.26 0.06 0  0.28 0.06 0  0.3 0.06 0  0.32 0.06 0  0.34 0.06 0  0.36 0.06 0  0.38 0.06 0  0.4 0.06 0  0.42 0.06 0  0.44 0.06 0  0.46 0.06 0  0.48 0.06 0  0.5 0.06 0  0.52 0.06 0  0.54 0.06 0  0.5600000000000001 0.06 0  0.58 0.06 0  0.6 0.06 0  0.62 0.06 0  0.64 0.06 0  0.66 0.06 0  0.68 0.06 0  0.7 0.06 0  0.72 0.06 0  0.74 0.06 0  0.76 0.06 0  0.78 0.06 0  0.8 0.06 0  0.82 0.06 0  0.84 0.06 0  0.86 0.06 0  0.88 0.06 0  0.9 0.06 0  0.92 0.06 0  0.9399999999999999 0.06 0  0.96 0.06 0  0.98 0.06 0  1 0.06 0  0 0.08 0  0.02 0.08 0  0.04 0.08 0  0.06 0.08 0  0.08 0.08 0  0.1 0.08 0  0.12 0.08 0  0.14 0.08 0  0.16 0.08 0  0.18 0.08 0  0.2 0.08 0  0.22 0.08 0  0.24 0.08 0  0.26 0.08 0  0.28 0.08 0  0.3 0.08 0  0.32 0.08 0  0.34 0.08 0  0.36 0.08 0  0.38 0.08 0  0.4 0.08 0  0.42 0.08 0  0.44 0.08 0  0.46 0.08 0  0.48 0.08 0  0.5 0.08 0  0.52 0.08 0  0.54 0.08 0  0.5600000000000001 0.08 0  0.58 0.08 0  0.6 0.08 0  0.62 0.08 0  0.64 0.08 0  0.66 0.08 0  0.68 0.08 0  0.7 0.08 0  0.72 0.08 0  0.74 0.08 0  0.76 0.08 0  0.78 0.08 0  0.8 0.08 0  0.82 0.08 0  0.84 0.08 0  0.86 0.08 0  0.88 0.08 0  0.9 0.08 0  0.92 0.08 0  0.9399999999999999 0.08 0  0.96 0.08 0  0.98 0.08 0  1 0.08 0  0 0.1 0  0.02 0.1 0  0.04 0.1 0  0.06 0.1 0  0.08 0.1 0  0.1 0.1 0  0.12 0.1 0  0.14 0.1 0  0.16 0.1 0  0.18 0.1 0  0.2 0.1 0  0.22 0.1 0  0.24 0.1 0  0.26 0.1 0  0.28 0.1 0  0.3 0.1 0  0.32 0.1 0  0.34 0.1 0  0.36 0.1 0  0.38 0.1 0  0.4 0.1 0  0.42 0.1 0  0.44 0.1 0  0.46 0.1 0  0.48 0.1 0  0.5 0.1 0  0.52 0.1 0  0.54 0.1 0  0.5600000000000001 0.1 0  0.58 0.1 0  0.6 0.1 0  0.62 0.1 0  0.64 0.1 0  0.66 0.1 0  0.68 0.1 0  0.7 0.1 0  0.72 0.1 0  0.74 0.1 0  0.76 0.1 0  0.78 0.1 0  0.8 0.1 0  0.82 0.1 0  0.84 0.1 0  0.86 0.1 0  0.88 0.1 0  0.9 0.1 0  0.92 0.1 0  0.9399999999999999 0.1 0  0.96 0.1 0  0.98 0.1 0  1 0.1 0  0 0.12 0  0.02 0.12 0  0.04 0.12 0  0.06 0.12 0  0.08 0.12 0  0.1 0.12 0  0.12 0.12 0  0.14 0.12 0  0.16 0.12 0  0.18 0.12 0  0.2 0.12 0  0.22 0.12 0  0.24 0.12 0  0.26 0.12 0  0.28 0.12 0  0.3 0.12 0  0.32 0.12 0  0.34 0.12 0  0.36 0.12 0  0.38 0.12 0  0.4 0.12 0  0.42 0.12 0  0.44 0.12 0  0.46 0.12 0  0.48 0.12 0  0.5 0.12 0  0.52 0.12 0  0.54 0.12 0  0.5600000000000001 0.12 0  0.58 0.12 0  0.6 0.12 0  0.62 0.12 0  0.64 0.12 0  0.66 0.12 0  0.68 0.12 0  0.7 0.12 0  0.72 0.12 0  0.74 0.12 0  0.76 0.12 0  0.78 0.12 0  0.8 0.12 0  0.82 0.12 0  0.84 0.12 0  0.86 0.12 0  0.88 0.12 0  0.9 0.12 0  0.92 0.12 0  0.9399999999999999 0.12 0  0.96 0.12 0  0.98 0.12 0  1 0.12 0  0 0.14 0  0.02 0.14 0  0.04 0.14 0  0.06 0.14 0  0.08 0.14 0  0.1 0.14 0  0.12 0.14 0  0.14 0.14 0  0.16 0.14 0  0.18 0.14 0  0.2 0.14 0  0.22 0.14 0  0.24 0.14 0  0.26 0.14 0  0.28 0.14 0  0.3 0.14 0  0.32 0.14 0  0.34 0.14 0  0.36 0.14 0  0.38 0.14 0  0.4 0.14 0  0.42 0.14 0  0.44 0.14 0  0.46 0.14 0  0.48 0.14 0  0.5 0.14 0  0.52 0.14 0  0.54 0.14 0  0.5600000000000001 0.14 0  0.58 0.14 0  0.6 0.14 0  0.62 0.14 0  0.64 0.14 0  0.66 0.14 0  0.68 0.14 0  0.7 0.14 0  0.72 0.14 0  0.74 0.14 0  0.76 0.14 0  0.78 0.14 0  0.8 0.14 0  0.82 0.14 0  0.84 0.14 0  0.86 0.14 0  0.88 0.14 0  0.9 0.14 0  0.92 0.14 0  0.9399999999999999 0.14 0  0.96 0.14 0  0.98 0.14 0  1 0.14 0  0 0.16 0  0.02 0.16 0  0.04 0.16 0  0.06 0.16 0  0.08 0.16 0  0.1 0.16 0  0.12 0.16 0  0.14 0.16 0  0.16 0.16 0  0.18 0.16 0  0.2 0.16 0  0.22 0.16 0  0.24 0.16 0  0.26 0.16 0  0.28 0.16 0  0.3 0.16 0  0.32 0.16 0  0.34 0.16 0  0.36 0.16 0  0.38 0.16 0  0.4 0.16 0  0.42 0.16 0  0.44 0.16 0  0.46 0.16 0  0.48 0.16 0  0.5 0.16 0  0.52 0.16 0  0.54 0.16 0  0.5600000000000001 0.16 0  0.58 0.16 0  0.6 0.16 0  0.62 0.16 0  0.64 0.16 0  0.66 0.16 0  0.68 0.16 0  0.7 0.16 0  0.72 0.16 0  0.74 0.16 0  0.76 0.16 0  0.78 0.16 0  0.8 0.16 0  0.82 0.16 0  0.84 0.16 0  0.86 0.16 0  0.88 0.16 0  0.9 0.16 0  0.92 0.16 0  0.9399999999999999 0.16 0  0.96 0.16 0  0.98 0.16 0  1 0.16 0  0 0.18 0  0.02 0.18 0  0.04 0.18 0  0.06 0.18 0  0.08 0.18 0  0.1 0.18 0  0.12 0.18 0  0.14 0.18 0  0.16 0.18 0  0.18 0.18 0  0.2 0.18 0  0.22 0.18 0  0.24 0.18 0  0.26 0.18 0  0.28 0.18 0  0.3 0.18 0  0.32 0.18 0  0.34 0.18 0  0.36 0.18 0  0.38 0.18 0  0.4 0.18 0  0.42 0.18 0  0.44 0.18 0  0.46 0.18 0  0.48 0.18 0  0.5 0.18 0  0.52 0.18 0  0.54 0.18 0  0.5600000000000001 0.18 0  0.58 0.18 0  0.6 0.18 0  0.62 0.18 0  0.64 0.18 0  0.66 0.18 0  0.68 0.18 0  0.7 0.18 0  0.72 0.18 0  0.74 0.18 0  0.76 0.18 0  0.78 0.18 0  0.8 0.18 0  0.82 0.18 0  0.84 0.18 0  0.86 0.18 0  0.88 0.18 0  0.9 0.18 0  0.92 0.18 0  0.9399999999999999 0.18 0  0.96 0.18 0  0.98 0.18 0  1 0.18 0  0 0.2 0  0.02 0.2 0  0.04 0.2 0  0.06 0.2 0  0.08 0.2 0  0.1 0.2 0  0.12 0.2 0  0.14 0.2 0  0.16 0.2 0  0.18 0.2 0  0.2 0.2 0  0.22 0.2 0  0.24 0.2 0  0.26 0.2 0  0.28 0.2 0  0.3 0.2 0  0.32 0.2 0  0.34 0.2 0  0.36 0.2 0  0.38 0.2 0  0.4 0.2 0  0.42 0.2 0  0.44 0.2 0  0.46 0.2 0  0.48 0.2 0  0.5 0.2 0  0.52 0.2 0  0.54 0.2 0  0.5600000000000001 0.2 0  0.58 0.2 0  0.6 0.2 0  0.62 0.2 0  0.64 0.2 0  0.66 0.2 0  0.68 0.2 0  0.7 0.2 0  0.72 0.2 0  0.74 0.2 0  0.76 0.2 0  0.78 0.2 0  0.8 0.2 0  0.82 0.2 0  0.84 0.2 0  0.86 0.2 0  0.88 0.2 0  0.9 0.2 0  0.92 0.2 0  0.9399999999999999 0.2 0  0.96 0.2 0  0.98 0.2 0  1 0.2 0  0 0.22 0  0.02 0.22 0  0.04 0.22 0  0.06 0.22 0  0.08 0.22 0  0.1 0.22 0  0.12 0.22 0  0.14 0.22 0  0.16 0.22 0  0.18 0.22 0  0.2 0.22 0  0.22 0.22 0  0.24 0.22 0  0.26 0.22 0  0.28 0.22 0  0.3 0.22 0  0.32 0.22 0  0.34 0.22 0  0.36 0.22 0  0.38 0.22 0  0.4 0.22 0  0.42 0.22 0  0.44 0.22 0  0.46 0.22 0  0.48 0.22 0  0.5 0.22 0  0.52 0.22 0  0.54 0.22 0  0.5600000000000001 0.22 0  0.58 0.22 0  0.6 0.22 0  0.62 0.22 0  0.64 0.22 0  0.66 0.22 0  0.68 0.22 0  0.7 0.22 0  0.72 0.22 0  0.74 0.22 0  0.76 0.22 0  0.78 0.22 0  0.8 0.22 0  0.82 0.22 0  0.84 0.22 0  0.86 0.22 0  0.88 0.22 0  0.9 0.22 0  0.92 0.22 0  0.9399999999999999 0.22 0  0.96 0.22 0  0.98 0.22 0  1 0.22 0  0 0.24 0  0.02 0.24 0  0.04 0.24 0  0.06 0.24 0  0.08 0.24 0  0.1 0.24 0  0.12 0.24 0  0.14 0.24 0  0.16 0.24 0  0.18 0.24 0  0.2 0.24 0  0.22 0.24 0  0.24 0.24 0  0.26 0.24 0  0.28 0.24 0  0.3 0.24 0  0.32 0.24 0  0.34 0.24 0  0.36 0.24 0  0.38 0.24 0  0.4 0.24 0  0.42 0.24 0  0.44 0.24 0  0.46 0.24 0  0.48 0.24 0  0.5 0.24 0  0.52 0.24 0  0.54 0.24 0  0.5600000000000001 0.24 0  0.58 0.24 0  0.6 0.24 0  0.62 0.24 0  0.64 0.24 0  0.66 0.24 0  0.68 0.24 0  0.7 0.24 0  0.72 0.24 0  0.74 0.24 0  0.76 0.24 0  0.78 0.24 0  0.8 0.24 0  0.82 0.24 0  0.84 0.24 0  0.86 0.24 0  0.88 0.24 0  0.9 0.24 0  0.92 0.24 0  0.9399999999999999 0.24 0  0.96 0.24 0  0.98 0.24 0  1 0.24 0  0 0.26 0  0.02 0.26 0  0.04 0.26 0  0.06 0.26 0  0.08 0.26 0  0.1 0.26 0  0.12 0.26 0  0.14 0.26 0  0.16 0.26 0  0.18 0.26 0  0.2 0.26 0  0.22 0.26 0  0.24 0.26 0  0.26 0.26 0  0.28 0.26 0  0.3 0.26 0  0.32 0.26 0  0.34 0.26 0  0.36 0.26 0  0.38 0.26 0  0.4 0.26 0  0.42 0.26 0  0.44 0.26 0  0.46 0.26 0  0.48 0.26 0  0.5 0.26 0  0.52 0.26 0  0.54 0.26 0  0.5600000000000001 0.26 0  0.58 0.26 0  0.6 0.26 0  0.62 0.26 0  0.64 0.26 0  0.66 0.26 0  0.68 0.26 0  0.7 0.26 0  0.72 0.26 0  0.74 0.26 0  0.76 0.26 0  0.78 0.26 0  0.8 0.26 0  0.82 0.26 0  0.84 0.26 0  0.86 0.26 0  0.88 0.26 0  0.9 0.26 0  0.92 0.26 0  0.9399999999999999 0.26 0  0.96 0.26 0  0.98 0.26 0  1 0.26 0  0 0.28 0  0.02 0.28 0  0.04 0.28 0  0.06 0.28 0  0.08 0.28 0  0.1 0.28 0  0.12 0.28 0  0.14 0.28 0  0.16 0.28 0  0.18 0.28 0  0.2 0.28 0  0.22 0.28 0  0.24 0.28 0  0.26 0.28 0  0.28 0.28 0  0.3 0.28 0  0.32 0.28 0  0.34 0.28 0  0.36 0.28 0  0.38 0.28 0  0.4 0.28 0  0.42 0.28 0  0.44 0.28 0  0.46 0.28 0  0.48 0.28 0  0.5 0.28 0  0.52 0.28 0  0.54 0.28 0  0.5600000000000001 0.28 0  0.58 0.28 0  0.6 0.28 0  0.62 0.28 0  0.64 0.28 0  0.66 0.28 0  0.68 0.28 0  0.7 0.28 0  0.72 0.28 0  0.74 0.28 0  0.76 0.28 0  0.78 0.28 0  0.8 0.28 0  0.82 0.28 0  0.84 0.28 0  0.86 0.28
[...]
<PointData  Vectors="f_406"> 
<DataArray  type="Float64"  Name="f_406"  NumberOfComponents="3" format="ascii">-5.3819197680280872e-01 -2.3858931950413303e-05 0.0000000000000000e+00  -5.3840541090292771e-01 1.0559536857892630e-04 0.0000000000000000e+00  -5.3892499431526242e-01 2.0481630739949724e-04 0.0000000000000000e+00  -5.3982668230443587e-01 3.0782036081982534e-04 0.0000000000000000e+00  -5.4113776023662730e-01 4.1220603366712738e-04 0.0000000000000000e+00  -5.4288691005498724e-01 5.1842634397328128e-04 0.0000000000000000e+00  -5.4510568263339465e-01 6.2710119347211617e-04 0.0000000000000000e+00  -5.4782715777702107e-01 7.3874561703932324e-04 0.0000000000000000e+00  -5.5108624188658650e-01 8.5391986554706574e-04 0.0000000000000000e+00  -5.5491971757673209e-01 9.7320804563754597e-04 0.0000000000000000e+00  -5.5936632878553694e-01 1.0972257020999414e-03 0.0000000000000000e+00  -5.6446688736377948e-01 1.2266253103522839e-03 0.0000000000000000e+00  -5.7026439743856028e-01 1.3621019824387401e-03 0.0000000000000000e+00  -5.7680420141056821e-01 1.5044000425093499e-03 0.0000000000000000e+00  -5.8413415011516945e-01 1.6543204771087697e-03 0.0000000000000000e+00  -5.9230480064837654e-01 1.8127295064969279e-03 0.0000000000000000e+00  -6.0136964614503530e-01 1.9805685283799412e-03 0.0000000000000000e+00  -6.1138538275925502e-01 2.1588657458185894e-03 0.0000000000000000e+00  -6.2241222029417775e-01 2.3487498671441163e-03 0.0000000000000000e+00  -6.3451424442110860e-01 2.5514663643140868e-03 0.0000000000000000e+00  -6.4775984031164791e-01 2.7683969061023167e-03 0.0000000000000000e+00  -6.6222218989577464e-01 3.0010827518585199e-03 0.0000000000000000e+00  -6.7797985802133887e-01 3.2512531173555970e-03 0.0000000000000000e+00  -6.9511748674305140e-01 3.5208598245091731e-03 0.0000000000000000e+00  -7.1372662211589499e-01 3.8121199523005727e-03 0.0000000000000000e+00  -7.3390670463343688e-01 4.1275687587967952e-03 0.0000000000000000e+00  -7.5576626342938202e-01 4.4701259051402008e-03 0.0000000000000000e+00  -7.7942436640539792e-01 4.8431790740206121e-03 0.0000000000000000e+00  -8.0501239478663078e-01 5.2506905751628398e-03 0.0000000000000000e+00  -8.3267623305309513e-01 5.6973346813074463e-03 0.0000000000000000e+00  -8.6257899644133795e-01 6.1886765688586587e-03 0.0000000000000000e+00  -8.9490446235300591e-01 6.7314083748441647e-03 0.0000000000000000e+00  -9.2986143538562338e-01 7.3336648778352057e-03 0.0000000000000000e+00  -9.6768936824417440e-01 8.0054520862942978e-03 0.0000000000000000e+00  -1.0086656988693194e+00 8.7592389979786450e-03 0.0000000000000000e+00  -1.0531155734354780e+00 9.6107902439496063e-03 0.0000000000000000e+00  -1.1014249547951303e+00 1.0580363047062164e-02 0.0000000000000000e+00  -1.1540586301957982e+00 1.1694470294475998e-02 0.0000000000000000e+00  -1.2115855417623200e+00 1.2988553292799901e-02 0.0000000000000000e+00  -1.2747151746845657e+00 1.4511167729419636e-02 0.0000000000000000e+00  -1.3443520840888581e+00 1.6330808795423542e-02 0.0000000000000000e+00  -1.4216778967524417e+00 1.8547723445194477e-02 0.0000000000000000e+00  -1.5082907783538031e+00 2.1315117508247425e-02 0.0000000000000000e+00  -1.6064087842573056e+00 2.4883045794719248e-02 0.0000000000000000e+00  -1.7194050593828583e+00 2.9711764867489353e-02 0.0000000000000000e+00  -1.8519913327388833e+00 3.6644467255543288e-02 0.0000000000000000e+00  -2.0154687707494041e+00 4.8527315112101448e-02 0.0000000000000000e+00  -2.2175029516529756e+00 7.2177768287437716e-02 0.0000000000000000e+00  -2.5345334849902152e+00 1.3582935719871717e-01 0.0000000000000000e+00  -3.0557822559728800e+00 4.5898972160846602e-01 0.0000000000000000e+00  -3.8818088993135813e+00 1.3368101832439228e+00 0.0000000000000000e+00  -5.3796087832916384e-01 7.3685929281171199e-06 0.0000000000000000e+00  -5.3824420299536457e-01 3.4851176864591409e-04 0.0000000000000000e+00  -5.3874401893482404e-01 6.7278036825346829e-04 0.0000000000000000e+00  -5.3964710732276355e-01 1.0075263510812582e-03 0.0000000000000000e+00  -5.4095506103698321e-01 1.3450947031302413e-03 0.0000000000000000e+00  -5.4270050126747482e-01 1.6890725790972326e-03 0.0000000000000000e+00  -5.4491466664393728e-01 2.0408726685474114e-03 0.0000000000000000e+00  -5.4763057881251009e-01 2.4022176214126612e-03 0.0000000000000000e+00  -5.5088311877505602e-01 2.7748926800619557e-03 0.0000000000000000e+00  -5.5470901656532212e-01 3.1607623962882046e-03 0.0000000000000000e+00  -5.5914695794658376e-01 3.5617943653382762e-03 0.0000000000000000e+00  -5.6423768679943509e-01 3.9800741126149947e-03 0.0000000000000000e+00  -5.7002412866629715e-01 4.4178240137488405e-03 0.0000000000000000e+00  -5.7655153542139936e-01 4.8774242325730103e-03 0.0000000000000000e+00  -5.8386765369533145e-01 5.3614365698545392e-03 0.0000000000000000e+00  -5.9202292059365746e-01 5.8726319035440561e-03 0.0000000000000000e+00  -6.0107069088569165e-01 6.4140220218255450e-03 0.0000000000000000e+00  -6.1106750080527872e-01 6.9888968483105334e-03 0.0000000000000000e+00  -6.2207337476438473e-01 7.6008682982538142e-03 0.0000000000000000e+00  -6.3415218272795260e-01 8.2539223209175446e-03 0.0000000000000000e+00  -6.4737205782310636e-01 8.9524810966811318e-03 0.0000000000000000e+00  -6.6180588606634649e-01 9.7014778995733707e-03 0.0000000000000000e+00  -6.7753188304560152e-01 1.0506447853726718e-02 0.0000000000000000e+00  -6.9463427619855234e-01 1.1373638770386373e-02 0.0000000000000000e+00  -7.1320411626780889e-01 1.2310147542560311e-02 0.0000000000000000e+00  -7.3334024798669539e-01 1.3324089331636381e-02 0.0000000000000000e+00  -7.5515047861127760e-01 1.4424809198714401e-02 0.0000000000000000e+00  -7.7875299435538547e-01 1.5623149202649957e-02 0.0000000000000000e+00  -8.0427809024115826e-01 1.6931788741777198e-02 0.0000000000000000e+00  -8.3187030000498097e-01 1.8365682721798941e-02 0.0000000000000000e+00  -8.6169104194915147e-01 1.9942632023027415e-02 0.0000000000000000e+00  -8.9392193768642081e-01 2.1684035354305232e-02 0.0000000000000000e+00  -9.2876901923366117e-01 2.3615893572832222e-02 0.0000000000000000e+00  -9.6646812463983467e-01 2.5770171310099590e-02 0.0000000000000000e+00  -1.0072919073393851e+00 2.8186673731422373e-02 0.0000000000000000e+00  -1.0515590721510388e+00 3.0915681489238168e-02 0.0000000000000000e+00  -1.0996467403224468e+00 3.4021727833328796e-02 0.0000000000000000e+00  -1.1520072975999709e+00 3.7589142171505906e-02 0.0000000000000000e+00  -1.2091918248278906e+00 4.1730408842931742e-02 0.0000000000000000e+00  -1.2718833844551312e+00 4.6599168452785070e-02 0.0000000000000000e+00  -1.3409457319553939e+00 5.2411203723435995e-02 0.0000000000000000e+00  -1.4174959076094011e+00 5.9479744693901486e-02 0.0000000000000000e+00  -1.5030192833897000e+00 6.8278066169201235e-02 0.0000000000000000e+00  -1.5995468863185431e+00 7.9558390790264749e-02 0.0000000000000000e+00  -1.7099749343121251e+00 9.4582823841815128e-02 0.0000000000000000e+00  -1.8385477334746247e+00 1.1567095196004987e-01 0.0000000000000000e+00  -1.9919934106786126e+00 1.4740246181682359e-01 0.0000000000000000e+00  -2.1784889270713439e+00 1.9882970974637273e-01 0.0000000000000000e+00  -2.4265111405783468e+00 2.9835831177559635e-01 0.0000000000000000e+00  -2.6526420862668947e+00 4.7006519808267394e-01 0.0000000000000000e+00  -3.1464055333309000e+00 8.6712325057030826e-01 0.0000000000000000e+00  -5.3731612262600226e-01 -9.7681439382392665e-07 0.0000000000000000e+00  -5.3772937292986156e-01 7.1257769591310312e-04 0.0000000000000000e+00  -5.3819939964914287e-01 1.4362720971081312e-03 0.0000000000000000e+00  -5.3910263436401018e-01 2.1672556286775491e-03 0.0000000000000000e+00  -5.4040067625370536e-01 2.9067769273172814e-03 0.0000000000000000e+00  -5.4213506160362634e-01 3.6600959072285019e-03 0.0000000000000000e+00  -5.4433521263520901e-01 4.4302305453347533e-03 0.0000000000000000e+00  -5.4703431261180957e-01 5.2210260241198660e-03 0.0000000000000000e+00  -5.5026709243294636e-01 6.0363363582006347e-03 0.0000000000000000e+00  -5.5407013061323018e-01 6.8802216534302359e-03 0.0000000000000000e+00  -5.5848193736239615e-01 7.7569597808261692e-03 0.0000000000000000e+00  -5.6354305144987804e-01 8.6710834187277326e-03 0.0000000000000000e+00  -5.6929616189478682e-01 9.6274204448866026e-03 0.0000000000000000e+00  -5.7578624817897550e-01 1.0631138774335748e-02 0.0000000000000000e+00  -5.8306074353798987e-01 1.1687797571897127e-02 0.0000000000000000e+00  -5.9116972434764270e-01 1.2803406063592695e-02 0.0000000000000000e+00  -6.0016612955357729e-01 1.3984491685519570e-02 0.0000000000000000e+00  -6.1010601495340178e-01 1.5238179667797263e-02 0.0000000000000000e+00  -6.2104884819356831e-01 1.6572286660678313e-02 0.0000000000000000e+00  -6.3305785166080941e-01 1.7995431669262985e-02 0.0000000000000000e+00  -6.4620040209697360e-01 1.9517168421871546e-02 0.0000000000000000e+00  -6.6054849784322356e-01 2.1148144421380053e-02 0.0000000000000000e+00  -6.7617930725258935e-01 2.2900293410882473e-02 0.0000000000000000e+00  -6.9317581517705962e-01 2.4787069956872972e-02 0.0000000000000000e+00  -7.1162758876505305e-01 2.6823737498714351e-02 0.0000000000000000e+00  -7.3163168942334589e-01 2.9027724799397622e-02 0.0000000000000000e+00  -7.5329376514204616e-01 3.1419070643803372e-02 0.0000000000000000e+00  -7.7672936706854978e-01 3.4020983435700286e-02 0.0000000000000000e+00  -8.0206554710814926e-01 3.6860551888720811e-02 0.0000000000000000e+00  -8.2944281065140257e-01 3.9969656570612765e-02 0.0000000000000000e+00  -8.5901752203858928e-01 4.3386151614946265e-02 0.0000000000000000e+00  -8.9096489261390999e-01 4.7155414543836628e-02 0.0000000000000000e+00  -9.2548272593083469e-01 5.1332404767439867e-02 0.0000000000000000e+00  -9.6279615732347623e-01 5.5984435945627326e-02 0.0000000000000000e+00  -1.0031637139618657e+00 6.1194967325378422e-02 0.0000000000000000e+00  -1.0468851484806938e+00 6.7068877074317093e-02 0.0000000000000000e+00  -1.0943116843185487e+00 7.3739936137964271e-02 0.0000000000000000e+00  -1.1458595741231270e+00 8.1381625360020873e-02 0.0000000000000000e+00  -1.2020282787593417e+00 9.0223163032785256e-02 0.0000000000000000e+00  -1.2634250654488899e+00 1.0057388585921123e-01 0.0000000000000000e+00  -1.3307988619596161e+00 1.1286144480225732e-01 0.0000000000000000e+00  -1.4050860285328297e+00 1.2769362247113372e-01 0.0000000000000000e+00  -1.4874760421287558e+00 1.4596219238209521e-01 0.0000000000000000e+00  -1.5794838263035385e+00 1.6902306678773885e-01 0.0000000000000000e+00  -1.6830906642292245e+00 1.9902527043780099e-01 0.0000000000000000e+00  -1.8006241436184576e+00 2.3951956961875329e-01 0.0000000000000000e+00  -1.9352928039456161e+00 2.9655737302704616e-01 0.0000000000000000e+00  -2.0876386444295942e+00 3.8116391354420393e-01 0.0000000000000000e+00  -2.2610918150698072e+00 5.1105102365309230e-01 0.0000000000000000e+00  -2.4092118340067410e+00 7.1401586353780366e-01 0.0000000000000000e+00  -2.6220807314138406e+00 1.0508180256451758e+00 0.0000000000000000e+00  -5.3632557771163591e-01 3.3147368487090489e-07 0.0000000000000000e+00  -5.3686761013647766e-01 1.0666296359970941e-03 0.0000000000000000e+00  -5.3729522291936493e-01 2.1365908686817731e-03 0.0000000000000000e+00  -5.3819697195644400e-01 3.2149050022437760e-03 0.0000000000000000e+00  -5.3947868238596397e-01 4.3080831619573910e-03 0.0000000000000000e+00  -5.4119482654358164e-01 5.4211280374043148e-03 0.0000000000000000e+00  -5.4337169682964659e-01 6.5591067218687092e-03 0.0000000000000000e+00  -5.4604294773596074e-01 7.7276078076153401e-03 0.0000000000000000e+00  -5.4924297765230345e-01 8.9322943416798358e-03 0.0000000000000000e+00  -5.5300813432374807e-01 1.0179150129338090e-02 0.0000000000000000e+00  -5.5737663479211608e-01 1.1474471003201848e-02 0.0000000000000000e+00  -5.6238868026789512e-01 1.2824928209738852e-02 0.0000000000000000e+00  -5.6808657054081046e-01 1.4237624655490506e-02 0.0000000000000000e+00  -5.7451483719461449e-01 1.5720160234937507e-02 0.0000000000000000e+00  -5.8172039860162783e-01 1.7280706039987472e-02 0.0000000000000000e+00  -5.8975273902610759e-01 1.8928089502089292e-02 0.0000000000000000e+00  -5.9866411551377463e-01 2.0671892923549044e-02 0.0000000000000000e+00  -6.0850979681307016e-01 2.2522568352698866e-02 0.0000000000000000e+00  -6.1934833949836998e-01 2.4491572487723528e-02 0.0000000000000000e+00  -6.3124190757682241e-01 2.6591526211066824e-02 0.0000000000000000e+00  -6.4425664323568110e-01 2.8836404547634122e-02 0.0000000000000000e+00  -6.5846309810196069e-01 3.1241764394254343e-02 0.0000000000000000e+00  -6.7393673652742636e-01 3.3825019404998755e-02 0.0000000000000000e+00  -6.9075852510586999e-01 3.6605774113245136e-02 0.0000000000000000e+00  -7.0901562603256962e-01 3.9606232967458369e-02 0.0000000000000000e+00  -7.2880221623730101e-01 4.2851704797835698e-02 0.0000000000000000e+00  -7.5022045973868190e-01 4.6371229812077010e-02 0.0000000000000000e+00  -7.7338166774098316e-01 5.0198365257903194e-02 0.0000000000000000e+00  -7.9840769010196211e-01 5.4372178446062971e-02 0.0000000000000000e+00  -8.2543259356885945e-01 5.8938513477930499e-02 0.0000000000000000e+00  -8.5460469741525991e-01 6.3951623146814934e-02 0.0000000000000000e+00  -8.8608905683165096e-01 6.9476293734403269e-02 0.0000000000000000e+00  -9.2007050985488825e-01 7.5590643484802017e-02 0.0000000000000000e+00  -9.5675743606259123e-01 8.2389854391672249e-02 0.0000000000000000e+00  -9.9638641585648191e-01 8.9991216015238268e-02 0.0000000000000000e+00  -1.0392280273876828e+00 9.8541042933653344e-02 0.0000000000000000e+00  -1.0855940715494172e+00 1.0822431327786523e-01 0.0000000000000000e+00  -1.1358465553117716e+00 1.1927833051494470e-01 0.0000000000000000e+00  -1.1904087741359399e+00 1.3201244682822819e-01 0.0000000000000000e+00  -1.2497786396515989e+00 1.4683709636346928e-01 0.0000000000000000e+00  -1.3145440945068332e+00 1.6430740003597932e-01 0.0000000000000000e+00  -1.3853982181977613e+00 1.8518996959246897e-01 0.0000000000000000e+00  -1.4631510981380613e+00 2.1056703562028734e-01 0.0000000000000000e+00  -1.5487138939398697e+00 2.4200080069913896e-01 0.0000000000000000e+00  -1.6430592239217234e+00 2.8179308565511213e-01 0.0000000000000000e+00  -1.7468972355286576e+00 3.3337655285385637e-01 0.0000000000000000e+00  -1.8606101600161065e+00 4.0190347143441219e-01 0.0000000000000000e+00  -1.9807619039875688e+00 4.9468020330123191e-01 0.0000000000000000e+00  -2.1064995145542524e+00 6.2126067337929747e-01 0.0000000000000000e+00  -2.1960175666674435e+00 7.9095752562884836e-01 0.0000000000000000e+00  -2.3266906722625564e+00 9.9062770006601331e-01 0.0000000000000000e+00  -5.3498533985284902e-01 3.4161031334225824e-07 0.0000000000000000e+00  -5.3565158490716269e-01 1.4143592476912310e-03 0.0000000000000000e+00  -5.3603647033071833e-01 2.8353678054577644e-03 0.0000000000000000e+00  -5.3693381977256527e-01 4.2694961459300903e-03 0.0000000000000000e+00  -5.3819303818151620e-01 5.7231777353908622e-03 0.0000000000000000e+00  -5.3988377826047795e-01 7.2029541371913322e-03 0.0000000000000000e+00  -5.4202823970086822e-01 8.7159018505809129e-03 0.0000000000000000e+00  -5.4466077116777145e-01 1.0269265509584975e-02 0.0000000000000000e+00  -5.4781526099994182e-01 1.1870574225840000e-02 0.0000000000000000e+00  -5.5152775783377617e-01 1.3527744213369828e-02 0.0000000000000000e+00  -5.5583606809497477e-01 1.5249104084825896e-02 0.0000000000000000e+00  -5.6077992941354815e-01 1.7043475826104871e-02 0.0000000000000000e+00  -5.6640110598711146e-01 1.8920246015634124e-02 0.0000000000000000e+00  -5.7274351413207114e-01 2.0889451061339021e-02 0.0000000000000000e+00  -5.7985336581574420e-01 2.2961873016284575e-02 0.0000000000000000e+00  -5.8777933396549620e-01 2.5149149497815906e-02 0.0000000000000000e+00  -5.9657274256240556e-01 2.7463900585558285e-02 0.0000000000000000e+00  -6.0628778503782410e-01 2.9919876413382691e-02 0.0000000000000000e+00  -6.1698177524816578e-01 3.2532130041848108e-02 0.0000000000000000e+00  -6.2871543614388303e-01 3.5317221318314232e-02 0.0000000000000000e+00  -6.4155323228222205e-01 3.8293458879025861e-02 0.0000000000000000e+00  -6.5556375359108743e-01 4.1481189319724707e-02 0.0000000000000000e+00  -6.7082015931995465e-01 4.4903145001103886e-02 0.0000000000000000e+00  -6.8740069297532591e-01 4.8584865156807315e-02 0.0000000000000000e+00  -7.0538928130440681e-01 5.2555209205593728e-02 0.0000000000000000e+00  -7.2487623314101091e-01 5.6846986813203021e-02 0.0000000000000000e+00  -7.4595905725134526e-01 6.1497736838508128e-02 0.0000000000000000e+00  -7.6874342229841264e-01 6.6550697595582506e-02 0.0000000000000000e+00  -7.9334428674145452e-01 7.2056024967822180e-02 0.0000000000000000e+00  -8.1988723189121393e-01 7.8072334421454906e-02 0.0000000000000000e+00  -8.4851003728300689e-01 8.4668670235992533e-02 0.0000000000000000e+00  -8.7936454350147020e-01 9.1927043787788529e-02 0.0000000000000000e+00  -9.1261885241982998e-01 9.9945737718871164e-02 0.0000000000000000e+00  -9.4845991597513657e-01 1.0884365219507579e-01 0.0000000000000000e+00  -9.8709655706402732e-01 1.1876608520937701e-01 0.0000000000000000e+00  -1.0287629393940063e+00 1.2989250932879604e-01 0.0000000000000000e+00  -1.0737224383224795e+00 1.4244716026408494e-01 0.0000000000000000e+00  -1.1222717170899870e+00 1.5671362997188573e-01 0.0000000000000000e+00  -1.1747445236627536e+00 1.7305521954517858e-01 0.0000000000000000e+00  -1.2315140596630418e+00 1.9194363655667726e-01 0.0000000000000000e+00  -1.2929917325092461e+00 2.1399981087474537e-01 0.0000000000000000e+00  -1.3596168639187196e+00 2.4005217804802498e-01 0.0000000000000000e+00  -1.4318301460284981e+00 2.7121955309565310e-01 0.0000000000000000e+00  -1.5100019306501518e+00 3.0902645128518197e-01 0.0000000000000000e+00  -1.5943174388071109e+00 3.5555474588756858e-01 0.0000000000000000e+00  -1.6843976009451951e+00 4.1361839522682348e-01 0.0000000000000000e+00  -1.7791590271452384e+00 4.8688327119056635e-01 0.0000000000000000e+00  -1.8742906177333123e+00 5.7970342564540489e-01 0.0000000000000000e+00  -1.9675441687381929e+00 6.9637125790467025e-01 0.0000000000000000e+00  -2.0295472586484888e+00 8.3715001387855736e-01 0.0000000000000000e+00  -2.1247108078577317e+00 9.9971849454809114e-01 0.0000000000000000e+00  -5.3330193068291210e-01 3.9544127649859570e-07 0.0000000000000000e+00  -5.3408989060786294e-01 1.7563312056080437e-03 0.0000000000000000e+00  -5.3443026664158588e-01 3.5207453237446336e-03 0.0000000000000000e+00  -5.3531865880935781e-01 5.3008189881879920e-03 0.0000000000000000e+00  -5.3654985133797506e-01 7.1048955397758394e-03 0.0000000000000000e+00  -5.3820810519776652e-01 8.9413855712860198e-03 0.0000000000000000e+00  -5.4031127164907078e-01 1.0818934866439112e-02 0.0000000000000000e+00  -5.4289447488850540e-01 1.2746464625831231e-02 0.0000000000000000e+00  -5.4599095389588348e-01 1.4733299188979927e-02 0.0000000000000000e+00  -5.4963638897795675e-01 1.6789202695820540e-02 0.0000000000000000e+00  -5.5386806460265947e-01 1.8924454034334723e-02 0.0000000000000000e+00  -5.5872513706720006e-01 2.1149931931047507e-02 0.0000000000000000e+00  -5.6424869771594965e-01 2.3477202655566135e-02 0.0000000000000000e+00  -5.7048189171892938e-01 2.5918622425097841e-02 0.0000000000000000e+00  -5.7747004696846216e-01 2.8487452171951748e-02 0.0000000000000000e+00  -5.8526082274869273e-01 3.1197989036375988e-02 0.0000000000000000e+00  -5.9390437946406494e-01 3.4065717677193241e-02 0.0000000000000000e+00  -6.0345357225734120e-01 3.7107485723021236e-02 0.0000000000000000e+00  -6.1396417172977558e-01 4.0341708585251851e-02 0.0000000000000000e+00  -6.2549511553181159e-01 4.3788610114932694e-02 0.0000000000000000e+00  -6.3810879524497122e-01 4.7470507179646175e-02 0.0000000000000000e+00  -6.5187138372499676e-01 5.1412148283233428e-02 0.0000000000000000e+00  -6.6685320893202560e-01 5.5641118993531705e-02 0.0000000000000000e+00  -6.8312918123279087e-01 6.0188330375208696e-02 0.0000000000000000e+00  -7.0077928220694607e-01 6.5088611110231745e-02 0.0000000000000000e+00  -7.19889