<?xml version="1.0"?>
<VTKFile type="UnstructuredGrid"  version="0.1"  >
<UnstructuredGrid>
<Piece  NumberOfPoints="2601" NumberOfCells="5000">
<Points>
<DataArray  type="Float64"  NumberOfComponents="3"  format="ascii">0 0 0  0.02 0 0  0.04 0 0  0.06 0 0  0.08 0 0  0.1 0 0  0.12 0 0  0.14 0 0  0.16 0 0  0.18 0 0  0.2 0 0  0.22 0 0  0.24 0 0  0.26 0 0  0.28 0 0  0.3 0 0  0.32 0 0  0.34 0 0  0.36 0 0  0.38 0 0  0.4 0 0  0.42 0 0  0.44 0 0  0.46 0 0  0.48 0 0  0.5 0 0  0.52 0 0  0.54 0 0  0.5600000000000001 0 0  0.58 0 0  0.6 0 0  0.62 0 0  0.64 0 0  0.66 0 0  0.68 0 0  0.7 0 0  0.72 0 0  0.74 0 0  0.76 0 0  0.78 0 0  0.8 0 0  0.82 0 0  0.84 0 0  0.86 0 0  0.88 0 0  0.9 0 0  0.92 0 0  0.9399999999999999 0 0  0.96 0 0  0.98 0 0  1 0 0  0 0.02 0  0.02 0.02 0  0.04 0.02 0  0.06 0.02 0  0.08 0.02 0  0.1 0.02 0  0.12 0.02 0  0.14 0.02 0  0.16 0.02 0  0.18 0.02 0  0.2 0.02 0  0.22 0.02 0  0.24 0.02 0  0.26 0.02 0  0.28 0.02 0  0.3 0.02 0  0.32 0.02 0  0.34 0.02 0  0.36 0.02 0  0.38 0.02 0  0.4 0.02 0  0.42 0.02 0  0.44 0.02 0  0.46 0.02 0  0.48 0.02 0  0.5 0.02 0  0.52 0.02 0  0.54 0.02 0  0.5600000000000001 0.02 0  0.58 0.02 0  0.6 0.02 0  0.62 0.02 0  0.64 0.02 0  0.66 0.02 0  0.68 0.02 0  0.7 0.02 0  0.72 0.02 0  0.74 0.02 0  0.76 0.02 0  0.78 0.02 0  0.8 0.02 0  0.82 0.02 0  0.84 0.02 0  0.86 0.02 0  0.88 0.02 0  0.9 0.02 0  0.92 0.02 0  0.9399999999999999 0.02 0  0.96 0.02 0  0.98 0.02 0  1 0.02 0  0 0.04 0  0.02 0.04 0  0.04 0.04 0  0.06 0.04 0  0.08 0.04 0  0.1 0.04 0  0.12 0.04 0  0.14 0.04 0  0.16 0.04 0  0.18 0.04 0  0.2 0.04 0  0.22 0.04 0  0.24 0.04 0  0.26 0.04 0  0.28 0.04 0  0.3 0.04 0  0.32 0.04 0  0.34 0.04 0  0.36 0.04 0  0.38 0.04 0  0.4 0.04 0  0.42 0.04 0  0.44 0.04 0  0.46 0.04 0  0.48 0.04 0  0.5 0.04 0  0.52 0.04 0  0.54 0.04 0  0.5600000000000001 0.04 0  0.58 0.04 0  0.6 0.04 0  0.62 0.04 0  0.64 0.04 0  0.66 0.04 0  0.68 0.04 0  0.7 0.04 0  0.72 0.04 0  0.74 0.04 0  0.76 0.04 0  0.78 0.04 0  0.8 0.04 0  0.82 0.04 0  0.84 0.04 0  0.86 0.04 0  0.88 0.04 0  0.9 0.04 0  0.92 0.04 0  0.9399999999999999 0.04 0  0.96 0.04 0  0.98 0.04 0  1 0.04 0  0 0.06 0  0.02 0.06 0  0.04 0.06 0  0.06 0.06 0  0.08 0.06 0  0.1 0.06 0  0.12 0.06 0  0.14 0.06 0  0.16 0.06 0  0.18 0.06 0  0.2 0.06 0  0.22 0.06 0  0.24 0.06 0  0.26 0.06 0  0.28 0.06 0  0.3 0.06 0  0.32 0.06 0  0.34 0.06 0  0.36 0.06 0  0.38 0.06 0  0.4 0.06 0  0.42 0.06 0  0.44 0.06 0  0.46 0.06 0  0.48 0.06 0  0.5 0.06 0  0.52 0.06 0  0.54 0.06 0  0.5600000000000001 0.06 0  0.58 0.06 0  0.6 0.06 0  0.62 0.06 0  0.64 0.06 0  0.66 0.06 0  0.68 0.06 0  0.7 0.06 0  0.72 0.06 0  0.74 0.06 0  0.76 0.06 0  0.78 0.06 0  0.8 0.06 0  0.82 0.06 0  0.84 0.06 0  0.86 0.06 0  0.88 0.06 0  0.9 0.06 0  0.92 0.06 0  0.9399999999999999 0.06 0  0.96 0.06 0  0.98 0.06 0  1 0.06 0  0 0.08 0  0.02 0.08 0  0.04 0.08 0  0.06 0.08 0  0.08 0.08 0  0.1 0.08 0  0.12 0.08 0  0.14 0.08 0  0.16 0.08 0  0.18 0.08 0  0.2 0.08 0  0.22 0.08 0  0.24 0.08 0  0.26 0.08 0  0.28 0.08 0  0.3 0.08 0  0.32 0.08 0  0.34 0.08 0  0.36 0.08 0  0.38 0.08 0  0.4 0.08 0  0.42 0.08 0  0.44 0.08 0  0.46 0.08 0  0.48 0.08 0  0.5 0.08 0  0.52 0.08 0  0.54 0.08 0  0.5600000000000001 0.08 0  0.58 0.08 0  0.6 0.08 0  0.62 0.08 0  0.64 0.08 0  0.66 0.08 0  0.68 0.08 0  0.7 0.08 0  0.72 0.08 0  0.74 0.08 0  0.76 0.08 0  0.78 0.08 0  0.8 0.08 0  0.82 0.08 0  0.84 0.08 0  0.86 0.08 0  0.88 0.08 0  0.9 0.08 0  0.92 0.08 0  0.9399999999999999 0.08 0  0.96 0.08 0  0.98 0.08 0  1 0.08 0  0 0.1 0  0.02 0.1 0  0.04 0.1 0  0.06 0.1 0  0.08 0.1 0  0.1 0.1 0  0.12 0.1 0  0.14 0.1 0  0.16 0.1 0  0.18 0.1 0  0.2 0.1 0  0.22 0.1 0  0.24 0.1 0  0.26 0.1 0  0.28 0.1 0  0.3 0.1 0  0.32 0.1 0  0.34 0.1 0  0.36 0.1 0  0.38 0.1 0  0.4 0.1 0  0.42 0.1 0  0.44 0.1 0  0.46 0.1 0  0.48 0.1 0  0.5 0.1 0  0.52 0.1 0  0.54 0.1 0  0.5600000000000001 0.1 0  0.58 0.1 0  0.6 0.1 0  0.62 0.1 0  0.64 0.1 0  0.66 0.1 0  0.68 0.1 0  0.7 0.1 0  0.72 0.1 0  0.74 0.1 0  0.76 0.1 0  0.78 0.1 0  0.8 0.1 0  0.82 0.1 0  0.84 0.1 0  0.86 0.1 0  0.88 0.1 0  0.9 0.1 0  0.92 0.1 0  0.9399999999999999 0.1 0  0.96 0.1 0  0.98 0.1 0  1 0.1 0  0 0.12 0  0.02 0.12 0  0.04 0.12 0  0.06 0.12 0  0.08 0.12 0  0.1 0.12 0  0.12 0.12 0  0.14 0.12 0  0.16 0.12 0  0.18 0.12 0  0.2 0.12 0  0.22 0.12 0  0.24 0.12 0  0.26 0.12 0  0.28 0.12 0  0.3 0.12 0  0.32 0.12 0  0.34 0.12 0  0.36 0.12 0  0.38 0.12 0  0.4 0.12 0  0.42 0.12 0  0.44 0.12 0  0.46 0.12 0  0.48 0.12 0  0.5 0.12 0  0.52 0.12 0  0.54 0.12 0  0.5600000000000001 0.12 0  0.58 0.12 0  0.6 0.12 0  0.62 0.12 0  0.64 0.12 0  0.66 0.12 0  0.68 0.12 0  0.7 0.12 0  0.72 0.12 0  0.74 0.12 0  0.76 0.12 0  0.78 0.12 0  0.8 0.12 0  0.82 0.12 0  0.84 0.12 0  0.86 0.12 0  0.88 0.12 0  0.9 0.12 0  0.92 0.12 0  0.9399999999999999 0.12 0  0.96 0.12 0  0.98 0.12 0  1 0.12 0  0 0.14 0  0.02 0.14 0  0.04 0.14 0  0.06 0.14 0  0.08 0.14 0  0.1 0.14 0  0.12 0.14 0  0.14 0.14 0  0.16 0.14 0  0.18 0.14 0  0.2 0.14 0  0.22 0.14 0  0.24 0.14 0  0.26 0.14 0  0.28 0.14 0  0.3 0.14 0  0.32 0.14 0  0.34 0.14 0  0.36 0.14 0  0.38 0.14 0  0.4 0.14 0  0.42 0.14 0  0.44 0.14 0  0.46 0.14 0  0.48 0.14 0  0.5 0.14 0  0.52 0.14 0  0.54 0.14 0  0.5600000000000001 0.14 0  0.58 0.14 0  0.6 0.14 0  0.62 0.14 0  0.64 0.14 0  0.66 0.14 0  0.68 0.14 0  0.7 0.14 0  0.72 0.14 0  0.74 0.14 0  0.76 0.14 0  0.78 0.14 0  0.8 0.14 0  0.82 0.14 0  0.84 0.14 0  0.86 0.14 0  0.88 0.14 0  0.9 0.14 0  0.92 0.14 0  0.9399999999999999 0.14 0  0.96 0.14 0  0.98 0.14 0  1 0.14 0  0 0.16 0  0.02 0.16 0  0.04 0.16 0  0.06 0.16 0  0.08 0.16 0  0.1 0.16 0  0.12 0.16 0  0.14 0.16 0  0.16 0.16 0  0.18 0.16 0  0.2 0.16 0  0.22 0.16 0  0.24 0.16 0  0.26 0.16 0  0.28 0.16 0  0.3 0.16 0  0.32 0.16 0  0.34 0.16 0  0.36 0.16 0  0.38 0.16 0  0.4 0.16 0  0.42 0.16 0  0.44 0.16 0  0.46 0.16 0  0.48 0.16 0  0.5 0.16 0  0.52 0.16 0  0.54 0.16 0  0.5600000000000001 0.16 0  0.58 0.16 0  0.6 0.16 0  0.62 0.16 0  0.64 0.16 0  0.66 0.16 0  0.68 0.16 0  0.7 0.16 0  0.72 0.16 0  0.74 0.16 0  0.76 0.16 0  0.78 0.16 0  0.8 0.16 0  0.82 0.16 0  0.84 0.16 0  0.86 0.16 0  0.88 0.16 0  0.9 0.16 0  0.92 0.16 0  0.9399999999999999 0.16 0  0.96 0.16 0  0.98 0.16 0  1 0.16 0  0 0.18 0  0.02 0.18 0  0.04 0.18 0  0.06 0.18 0  0.08 0.18 0  0.1 0.18 0  0.12 0.18 0  0.14 0.18 0  0.16 0.18 0  0.18 0.18 0  0.2 0.18 0  0.22 0.18 0  0.24 0.18 0  0.26 0.18 0  0.28 0.18 0  0.3 0.18 0  0.32 0.18 0  0.34 0.18 0  0.36 0.18 0  0.38 0.18 0  0.4 0.18 0  0.42 0.18 0  0.44 0.18 0  0.46 0.18 0  0.48 0.18 0  0.5 0.18 0  0.52 0.18 0  0.54 0.18 0  0.5600000000000001 0.18 0  0.58 0.18 0  0.6 0.18 0  0.62 0.18 0  0.64 0.18 0  0.66 0.18 0  0.68 0.18 0  0.7 0.18 0  0.72 0.18 0  0.74 0.18 0  0.76 0.18 0  0.78 0.18 0  0.8 0.18 0  0.82 0.18 0  0.84 0.18 0  0.86 0.18 0  0.88 0.18 0  0.9 0.18 0  0.92 0.18 0  0.9399999999999999 0.18 0  0.96 0.18 0  0.98 0.18 0  1 0.18 0  0 0.2 0  0.02 0.2 0  0.04 0.2 0  0.06 0.2 0  0.08 0.2 0  0.1 0.2 0  0.12 0.2 0  0.14 0.2 0  0.16 0.2 0  0.18 0.2 0  0.2 0.2 0  0.22 0.2 0  0.24 0.2 0  0.26 0.2 0  0.28 0.2 0  0.3 0.2 0  0.32 0.2 0  0.34 0.2 0  0.36 0.2 0  0.38 0.2 0  0.4 0.2 0  0.42 0.2 0  0.44 0.2 0  0.46 0.2 0  0.48 0.2 0  0.5 0.2 0  0.52 0.2 0  0.54 0.2 0  0.5600000000000001 0.2 0  0.58 0.2 0  0.6 0.2 0  0.62 0.2 0  0.64 0.2 0  0.66 0.2 0  0.68 0.2 0  0.7 0.2 0  0.72 0.2 0  0.74 0.2 0  0.76 0.2 0  0.78 0.2 0  0.8 0.2 0  0.82 0.2 0  0.84 0.2 0  0.86 0.2 0  0.88 0.2 0  0.9 0.2 0  0.92 0.2 0  0.9399999999999999 0.2 0  0.96 0.2 0  0.98 0.2 0  1 0.2 0  0 0.22 0  0.02 0.22 0  0.04 0.22 0  0.06 0.22 0  0.08 0.22 0  0.1 0.22 0  0.12 0.22 0  0.14 0.22 0  0.16 0.22 0  0.18 0.22 0  0.2 0.22 0  0.22 0.22 0  0.24 0.22 0  0.26 0.22 0  0.28 0.22 0  0.3 0.22 0  0.32 0.22 0  0.34 0.22 0  0.36 0.22 0  0.38 0.22 0  0.4 0.22 0  0.42 0.22 0  0.44 0.22 0  0.46 0.22 0  0.48 0.22 0  0.5 0.22 0  0.52 0.22 0  0.54 0.22 0  0.5600000000000001 0.22 0  0.58 0.22 0  0.6 0.22 0  0.62 0.22 0  0.64 0.22 0  0.66 0.22 0  0.68 0.22 0  0.7 0.22 0  0.72 0.22 0  0.74 0.22 0  0.76 0.22 0  0.78 0.22 0  0.8 0.22 0  0.82 0.22 0  0.84 0.22 0  0.86 0.22 0  0.88 0.22 0  0.9 0.22 0  0.92 0.22 0  0.9399999999999999 0.22 0  0.96 0.22 0  0.98 0.22 0  1 0.22 0  0 0.24 0  0.02 0.24 0  0.04 0.24 0  0.06 0.24 0  0.08 0.24 0  0.1 0.24 0  0.12 0.24 0  0.14 0.24 0  0.16 0.24 0  0.18 0.24 0  0.2 0.24 0  0.22 0.24 0  0.24 0.24 0  0.26 0.24 0  0.28 0.24 0  0.3 0.24 0  0.32 0.24 0  0.34 0.24 0  0.36 0.24 0  0.38 0.24 0  0.4 0.24 0  0.42 0.24 0  0.44 0.24 0  0.46 0.24 0  0.48 0.24 0  0.5 0.24 0  0.52 0.24 0  0.54 0.24 0  0.5600000000000001 0.24 0  0.58 0.24 0  0.6 0.24 0  0.62 0.24 0  0.64 0.24 0  0.66 0.24 0  0.68 0.24 0  0.7 0.24 0  0.72 0.24 0  0.74 0.24 0  0.76 0.24 0  0.78 0.24 0  0.8 0.24 0  0.82 0.24 0  0.84 0.24 0  0.86 0.24 0  0.88 0.24 0  0.9 0.24 0  0.92 0.24 0  0.9399999999999999 0.24 0  0.96 0.24 0  0.98 0.24 0  1 0.24 0  0 0.26 0  0.02 0.26 0  0.04 0.26 0  0.06 0.26 0  0.08 0.26 0  0.1 0.26 0  0.12 0.26 0  0.14 0.26 0  0.16 0.26 0  0.18 0.26 0  0.2 0.26 0  0.22 0.26 0  0.24 0.26 0  0.26 0.26 0  0.28 0.26 0  0.3 0.26 0  0.32 0.26 0  0.34 0.26 0  0.36 0.26 0  0.38 0.26 0  0.4 0.26 0  0.42 0.26 0  0.44 0.26 0  0.46 0.26 0  0.48 0.26 0  0.5 0.26 0  0.52 0.26 0  0.54 0.26 0  0.5600000000000001 0.26 0  0.58 0.26 0  0.6 0.26 0  0.62 0.26 0  0.64 0.26 0  0.66 0.26 0  0.68 0.26 0  0.7 0.26 0  0.72 0.26 0  0.74 0.26 0  0.76 0.26 0  0.78 0.26 0  0.8 0.26 0  0.82 0.26 0  0.84 0.26 0  0.86 0.26 0  0.88 0.26 0  0.9 0.26 0  0.92 0.26 0  0.9399999999999999 0.26 0  0.96 0.26 0  0.98 0.26 0  1 0.26 0  0 0.28 0  0.02 0.28 0  0.04 0.28 0  0.06 0.28 0  0.08 0.28 0  0.1 0.28 0  0.12 0.28 0  0.14 0.28 0  0.16 0.28 0  0.18 0.28 0  0.2 0.28 0  0.22 0.28 0  0.24 0.28 0  0.26 0.28 0  0.28 0.28 0  0.3 0.28 0  0.32 0.28 0  0.34 0.28 0  0.36 0.28 0  0.38 0.28 0  0.4 0.28 0  0.42 0.28 0  0.44 0.28 0  0.46 0.28 0  0.48 0.28 0  0.5 0.28 0  0.52 0.28 0  0.54 0.28 0  0.5600000000000001 0.28 0  0.58 0.28 0  0.6 0.28 0  0.62 0.28 0  0.64 0.28 0  0.66 0.28 0  0.68 0.28 0  0.7 0.28 0  0.72 0.28 0  0.74 0.28 0  0.76 0.28 0  0.78 0.28 0  0.8 0.28 0  0.82 0.28 0  0.84 0.28 0  0.86 0.28
[...]
<PointData  Vectors="f_380"> 
<DataArray  type="Float64"  Name="f_380"  NumberOfComponents="3" format="ascii">-5.4538594128252627e-01 -2.3946811198533907e-05 0.0000000000000000e+00  -5.4560006688323104e-01 1.0634296619206549e-04 0.0000000000000000e+00  -5.4611996014815556e-01 2.0621687895749485e-04 0.0000000000000000e+00  -5.4702025322387626e-01 3.0989227672532579e-04 0.0000000000000000e+00  -5.4832663896424805e-01 4.1495061967890468e-04 0.0000000000000000e+00  -5.5006621755555407e-01 5.2184578914148388e-04 0.0000000000000000e+00  -5.5226897269978026e-01 6.3119858310066793e-04 0.0000000000000000e+00  -5.5496642487210612e-01 7.4352404438988941e-04 0.0000000000000000e+00  -5.5819193071689233e-01 8.5938234648571437e-04 0.0000000000000000e+00  -5.6198073303652041e-01 9.7935729517270261e-04 0.0000000000000000e+00  -5.6637004639575472e-01 1.1040639316717905e-03 0.0000000000000000e+00  -5.7139916421844428e-01 1.2341540264893488e-03 0.0000000000000000e+00  -5.7710958363967224e-01 1.3703217844581749e-03 0.0000000000000000e+00  -5.8354515197740797e-01 1.5133104193222832e-03 0.0000000000000000e+00  -5.9075223735090421e-01 1.6639196026048640e-03 0.0000000000000000e+00  -5.9877992694474669e-01 1.8230140336530077e-03 0.0000000000000000e+00  -6.0768025720675933e-01 1.9915333815285060e-03 0.0000000000000000e+00  -6.1750848122709445e-01 2.1705039113379880e-03 0.0000000000000000e+00  -6.2832337974650621e-01 2.3610521825765691e-03 0.0000000000000000e+00  -6.4018762373263538e-01 2.5644213056100389e-03 0.0000000000000000e+00  -6.5316819834764683e-01 2.7819903732984978e-03 0.0000000000000000e+00  -6.6733690052019179e-01 3.0152978530944710e-03 0.0000000000000000e+00  -6.8277092539628326e-01 3.2660699511498298e-03 0.0000000000000000e+00  -6.9955356089789733e-01 3.5362552606129569e-03 0.0000000000000000e+00  -7.1777501476322436e-01 3.8280674110145450e-03 0.0000000000000000e+00  -7.3753340520980426e-01 4.1440379889600455e-03 0.0000000000000000e+00  -7.5893595533872749e-01 4.4870827608564680e-03 0.0000000000000000e+00  -7.8210044344291074e-01 4.8605852902996703e-03 0.0000000000000000e+00  -8.0715697772152450e-01 5.2685035426226698e-03 0.0000000000000000e+00  -8.3425018634862458e-01 5.7155072200539220e-03 0.0000000000000000e+00  -8.6354194509093984e-01 6.2071567017542018e-03 0.0000000000000000e+00  -8.9521480881142779e-01 6.7501391001601281e-03 0.0000000000000000e+00  -9.2947637657426796e-01 7.3525839414610421e-03 0.0000000000000000e+00  -9.6656491260863309e-01 8.0244917533224495e-03 0.0000000000000000e+00  -1.0067566834699471e+00 8.7783258234871830e-03 0.0000000000000000e+00  -1.0503756810372500e+00 9.6298448422811773e-03 0.0000000000000000e+00  -1.0978067309679855e+00 1.0599299858553384e-02 0.0000000000000000e+00  -1.1495135002520640e+00 1.1713197347598575e-02 0.0000000000000000e+00  -1.2060638280218188e+00 1.3006971958100300e-02 0.0000000000000000e+00  -1.2681661120165111e+00 1.4529172459052647e-02 0.0000000000000000e+00  -1.3367238411189333e+00 1.6348286836701684e-02 0.0000000000000000e+00  -1.4129175746357876e+00 1.8564554506308645e-02 0.0000000000000000e+00  -1.4983444912832804e+00 2.1331173332392005e-02 0.0000000000000000e+00  -1.5952214322463698e+00 2.4898189542864504e-02 0.0000000000000000e+00  -1.7069212432790457e+00 2.9725850019804299e-02 0.0000000000000000e+00  -1.8381519673600277e+00 3.6657335421024055e-02 0.0000000000000000e+00  -2.0002240331718748e+00 4.8538788136846825e-02 0.0000000000000000e+00  -2.2007624017248149e+00 7.2187627256541292e-02 0.0000000000000000e+00  -2.5163563319670001e+00 1.3583721982180103e-01 0.0000000000000000e+00  -3.0356822626063229e+00 4.5899448017086752e-01 0.0000000000000000e+00  -3.8610306592772705e+00 1.3368076841823522e+00 0.0000000000000000e+00  -5.4515344540405997e-01 7.4034372827590758e-06 0.0000000000000000e+00  -5.4543782407943386e-01 3.5045155181798312e-04 0.0000000000000000e+00  -5.4593785678780826e-01 6.7653711960445173e-04 0.0000000000000000e+00  -5.4683956589674276e-01 1.0131427052317914e-03 0.0000000000000000e+00  -5.4814282163395289e-01 1.3525683002818937e-03 0.0000000000000000e+00  -5.4987868555116948e-01 1.6984145013419602e-03 0.0000000000000000e+00  -5.5207682795710400e-01 2.0520938824125307e-03 0.0000000000000000e+00  -5.5476871146938345e-01 2.4153297660815904e-03 0.0000000000000000e+00  -5.5798766778003694e-01 2.7899073078667147e-03 0.0000000000000000e+00  -5.6176888744923237e-01 3.1776902843414232e-03 0.0000000000000000e+00  -5.6614952721876388e-01 3.5806448768878011e-03 0.0000000000000000e+00  -5.7116881289232413e-01 4.0008545489983258e-03 0.0000000000000000e+00  -5.7686816337144620e-01 4.4405389661672581e-03 0.0000000000000000e+00  -5.8329133580103565e-01 4.9020749303172392e-03 0.0000000000000000e+00  -5.9048459445120471e-01 5.3880202240062583e-03 0.0000000000000000e+00  -5.9849690687471113e-01 5.9011410458609855e-03 0.0000000000000000e+00  -6.0738017151497858e-01 6.4444438383138682e-03 0.0000000000000000e+00  -6.1718948190623724e-01 7.0212125075601924e-03 0.0000000000000000e+00  -6.2798343376513566e-01 7.6350522741548566e-03 0.0000000000000000e+00  -6.3982448272307324e-01 8.2899417099740746e-03 0.0000000000000000e+00  -6.5277936227078559e-01 8.9902949297879509e-03 0.0000000000000000e+00  -6.6691957379928257e-01 9.7410364484325079e-03 0.0000000000000000e+00  -6.8232196357340702e-01 1.0547691932020233e-02 0.0000000000000000e+00  -6.9906940527934358e-01 1.1416499029891837e-02 0.0000000000000000e+00  -7.1725161172672691e-01 1.2354543764586416e-02 0.0000000000000000e+00  -7.3696610575892485e-01 1.3369929714003723e-02 0.0000000000000000e+00  -7.5831938898746465e-01 1.4471989638751327e-02 0.0000000000000000e+00  -7.8142835840738745e-01 1.5671552576678349e-02 0.0000000000000000e+00  -8.0642203640625132e-01 1.6981284181483439e-02 0.0000000000000000e+00  -8.3344370080721097e-01 1.8416124888109807e-02 0.0000000000000000e+00  -8.6265353083651464e-01 1.9993860377829895e-02 0.0000000000000000e+00  -8.9423192596285295e-01 2.1735873430402279e-02 0.0000000000000000e+00  -9.2838371306525003e-01 2.3668148242376244e-02 0.0000000000000000e+00  -9.6534354211374307e-01 2.5822632051080537e-02 0.0000000000000000e+00  -1.0053828955550912e+00 2.8239111891557613e-02 0.0000000000000000e+00  -1.0488193243173192e+00 3.0967849545428989e-02 0.0000000000000000e+00  -1.0960288128482678e+00 3.4073358643062900e-02 0.0000000000000000e+00  -1.1474626270981132e+00 3.7639948210001987e-02 0.0000000000000000e+00  -1.2036707451857902e+00 4.1780081415117777e-02 0.0000000000000000e+00  -1.2653351432017903e+00 4.6647376860688587e-02 0.0000000000000000e+00  -1.3333185085512267e+00 5.2457594354655288e-02 0.0000000000000000e+00  -1.4087368234038631e+00 5.9523939967543120e-02 0.0000000000000000e+00  -1.4930744411583534e+00 6.8319663216845988e-02 0.0000000000000000e+00  -1.5883612962671356e+00 7.9596959619609539e-02 0.0000000000000000e+00  -1.6974928582941422e+00 9.4617904448118045e-02 0.0000000000000000e+00  -1.8247114773313746e+00 1.1570204905400891e-01 0.0000000000000000e+00  -1.9767478124211328e+00 1.4742903406873348e-01 0.0000000000000000e+00  -2.1617646593009314e+00 1.9885114610395602e-01 0.0000000000000000e+00  -2.4082893229555533e+00 2.9837386509694247e-01 0.0000000000000000e+00  -2.6326909216312413e+00 4.7007390091332985e-01 0.0000000000000000e+00  -3.1253942423175554e+00 8.6712349013104784e-01 0.0000000000000000e+00  -5.4450521214304515e-01 -9.8252872402594602e-07 0.0000000000000000e+00  -5.4492020248046891e-01 7.1641080688919034e-04 0.0000000000000000e+00  -5.4539030617752271e-01 1.4439836521629021e-03 0.0000000000000000e+00  -5.4629218237206212e-01 2.1788608409050473e-03 0.0000000000000000e+00  -5.4758550483745538e-01 2.9222872390081032e-03 0.0000000000000000e+00  -5.4931029740209536e-01 3.6795360420138578e-03 0.0000000000000000e+00  -5.5149440615209566e-01 4.4536249999258043e-03 0.0000000000000000e+00  -5.5416945783490490e-01 5.2484013712438471e-03 0.0000000000000000e+00  -5.5736863497641620e-01 6.0677189876435934e-03 0.0000000000000000e+00  -5.6112697766859199e-01 6.9156364723712499e-03 0.0000000000000000e+00  -5.6548146815374967e-01 7.7964287931579848e-03 0.0000000000000000e+00  -5.7047112817460977e-01 8.7146243111593975e-03 0.0000000000000000e+00  -5.7613714116604064e-01 9.6750451690454514e-03 0.0000000000000000e+00  -5.8252299294378462e-01 1.0682852119566561e-02 0.0000000000000000e+00  -5.8967463545391186e-01 1.1743595728192755e-02 0.0000000000000000e+00  -5.9764067659879527e-01 1.2863275173610215e-02 0.0000000000000000e+00  -6.0647260008618809e-01 1.4048406384882724e-02 0.0000000000000000e+00  -6.1622502011098867e-01 1.5306101613702272e-02 0.0000000000000000e+00  -6.2695597673022729e-01 1.6644163048258040e-02 0.0000000000000000e+00  -6.3872727911199356e-01 1.8071193735853884e-02 0.0000000000000000e+00  -6.5160490548554062e-01 1.9596729939162373e-02 0.0000000000000000e+00  -6.6565947069903242e-01 2.1231400175640354e-02 0.0000000000000000e+00  -6.8096677492338720e-01 2.2987117671580667e-02 0.0000000000000000e+00  -6.9760845040801422e-01 2.4877314934118832e-02 0.0000000000000000e+00  -7.1567272752481526e-01 2.6917231790270679e-02 0.0000000000000000e+00  -7.3525534695400541e-01 2.9124271827844578e-02 0.0000000000000000e+00  -7.5646065221071379e-01 3.1518447084798042e-02 0.0000000000000000e+00  -7.7940290639854126e-01 3.4122937638425610e-02 0.0000000000000000e+00  -8.0420788996781623e-01 3.6964802289477329e-02 0.0000000000000000e+00  -8.3101485357924565e-01 4.0075890100783849e-02 0.0000000000000000e+00  -8.5997892368355955e-01 4.3494022104373913e-02 0.0000000000000000e+00  -8.9127409066995289e-01 4.7264541120471425e-02 0.0000000000000000e+00  -9.2509695414555715e-01 5.1442370253857575e-02 0.0000000000000000e+00  -9.6167146256020120e-01 5.6094785252174879e-02 0.0000000000000000e+00  -1.0012549732959490e+00 6.1305205838616428e-02 0.0000000000000000e+00  -1.0441460863039729e+00 6.7178469037610891e-02 0.0000000000000000e+00  -1.0906948894496096e+00 7.3848303017956016e-02 0.0000000000000000e+00  -1.1413165168235107e+00 8.1488144187561007e-02 0.0000000000000000e+00  -1.1965093279080974e+00 9.0327164698745258e-02 0.0000000000000000e+00  -1.2568795047870065e+00 1.0067465333118338e-01 0.0000000000000000e+00  -1.3231749093016087e+00 1.1295821120342595e-01 0.0000000000000000e+00  -1.3963308431222419e+00 1.2778556891770529e-01 0.0000000000000000e+00  -1.4775357753661753e+00 1.4604844539234860e-01 0.0000000000000000e+00  -1.5683035083789303e+00 1.6910269491581639e-01 0.0000000000000000e+00  -1.6706147050097448e+00 1.9909727946722602e-01 0.0000000000000000e+00  -1.7867945258591973e+00 2.3958289503805458e-01 0.0000000000000000e+00  -1.9200559162450657e+00 2.9661086732796621e-01 0.0000000000000000e+00  -2.0709199644622749e+00 3.8120632400750987e-01 0.0000000000000000e+00  -2.2428892949990402e+00 5.1108095494581118e-01 0.0000000000000000e+00  -2.3892545915326413e+00 7.1403173565706701e-01 0.0000000000000000e+00  -2.6010775398957890e+00 1.0508180644155549e+00 0.0000000000000000e+00  -5.4350939167847456e-01 3.3261671704339209e-07 0.0000000000000000e+00  -5.4405383606509894e-01 1.0722987199908041e-03 0.0000000000000000e+00  -5.4448132396382276e-01 2.1479314390418277e-03 0.0000000000000000e+00  -5.4538173947087654e-01 3.2319310262329793e-03 0.0000000000000000e+00  -5.4665869458438654e-01 4.3308238094470295e-03 0.0000000000000000e+00  -5.4836521829287777e-01 5.4496177570181811e-03 0.0000000000000000e+00  -5.5052601332837947e-01 6.5933829744479304e-03 0.0000000000000000e+00  -5.5317318274616800e-01 7.7677106142641020e-03 0.0000000000000000e+00  -5.5633957767550024e-01 8.9782633977325207e-03 0.0000000000000000e+00  -5.6006000927574606e-01 1.0231022981634931e-02 0.0000000000000000e+00  -5.6437116835180157e-01 1.1532280918678224e-02 0.0000000000000000e+00  -5.6931174083552838e-01 1.2888702098794086e-02 0.0000000000000000e+00  -5.7492252269115807e-01 1.4307380973430836e-02 0.0000000000000000e+00  -5.8124655360691024e-01 1.5795906869818070e-02 0.0000000000000000e+00  -5.8832927244963773e-01 1.7362438184786055e-02 0.0000000000000000e+00  -5.9621869680828332e-01 1.9015787510111615e-02 0.0000000000000000e+00  -6.0496563030356520e-01 2.0765520146361693e-02 0.0000000000000000e+00  -6.1462390190888705e-01 2.2622068960267045e-02 0.0000000000000000e+00  -6.2525064245220985e-01 2.4596869270363909e-02 0.0000000000000000e+00  -6.3690660457996873e-01 2.6702518363178683e-02 0.0000000000000000e+00  -6.4965653383985311e-01 2.8952965433365192e-02 0.0000000000000000e+00  -6.6356960025350931e-01 3.1363739295180292e-02 0.0000000000000000e+00  -6.7871990189239728e-01 3.3952223250560312e-02 0.0000000000000000e+00  -6.9518705466312425e-01 3.6737989194411014e-02 0.0000000000000000e+00  -7.1305688591240690e-01 3.9743206634552899e-02 0.0000000000000000e+00  -7.3242225378311399e-01 4.2993147143756238e-02 0.0000000000000000e+00  -7.5338401976902181e-01 4.6516811342168930e-02 0.0000000000000000e+00  -7.7605220898977123e-01 5.0347714547998294e-02 0.0000000000000000e+00  -8.0054740181509709e-01 5.4524879790492919e-02 0.0000000000000000e+00  -8.2700241223556736e-01 5.9094104529145444e-02 0.0000000000000000e+00  -8.5556432361326828e-01 6.4109592548432306e-02 0.0000000000000000e+00  -8.8639697216568214e-01 6.9636078749330144e-02 0.0000000000000000e+00  -9.1968399396865153e-01 7.5751627619395037e-02 0.0000000000000000e+00  -9.5563258370474635e-01 8.2551365016426487e-02 0.0000000000000000e+00  -9.9447815398287565e-01 9.0152521980953235e-02 0.0000000000000000e+00  -1.0364901322768472e+00 9.8701352179773563e-02 0.0000000000000000e+00  -1.0819791859313779e+00 1.0838277042620875e-01 0.0000000000000000e+00  -1.1313062054243264e+00 1.1943401443635342e-01 0.0000000000000000e+00  -1.1848933869455396e+00 1.3216436816059626e-01 0.0000000000000000e+00  -1.2432375592682210e+00 1.4698419494483556e-01 0.0000000000000000e+00  -1.3069256013553090e+00 1.6444854219271962e-01 0.0000000000000000e+00  -1.3766495375465777e+00 1.8532394518301740e-01 0.0000000000000000e+00  -1.4532184481778438e+00 2.1069255467073167e-01 0.0000000000000000e+00  -1.5375423856889467e+00 2.4211648936157537e-01 0.0000000000000000e+00  -1.6305933163047270e+00 2.8189748106552243e-01 0.0000000000000000e+00  -1.7330791127429275e+00 3.3346809626063678e-01 0.0000000000000000e+00  -1.8453859108802020e+00 4.0198049889689202e-01 0.0000000000000000e+00  -1.9640583855532705e+00 4.9474093390051360e-01 0.0000000000000000e+00  -2.0883116339192940e+00 6.2130319800456457e-01 0.0000000000000000e+00  -2.1760798452219059e+00 7.9097981623927371e-01 0.0000000000000000e+00  -2.3057114141304735e+00 9.9062761863628879e-01 0.0000000000000000e+00  -5.4216205169754017e-01 3.4251245242383783e-07 0.0000000000000000e+00  -5.4283136675906030e-01 1.4218472386744250e-03 0.0000000000000000e+00  -5.4321593051509820e-01 2.8503598769450225e-03 0.0000000000000000e+00  -5.4411196818690988e-01 4.2920217451516514e-03 0.0000000000000000e+00  -5.4536638139418370e-01 5.7532754876561338e-03 0.0000000000000000e+00  -5.4704746153817752e-01 7.2406695858567623e-03 0.0000000000000000e+00  -5.4917580084893269e-01 8.7612862907962951e-03 0.0000000000000000e+00  -5.5178420379103932e-01 1.0322372836604561e-02 0.0000000000000000e+00  -5.5490501273313575e-01 1.1931458116792429e-02 0.0000000000000000e+00  -5.5857274237646715e-01 1.3596455510612950e-02 0.0000000000000000e+00  -5.6282367529082888e-01 1.5325687981335427e-02 0.0000000000000000e+00  -5.6769603627527310e-01 1.7127969104979358e-02 0.0000000000000000e+00  -5.7323008815863241e-01 1.9012674249621320e-02 0.0000000000000000e+00  -5.7946825783765199e-01 2.0989825795840085e-02 0.0000000000000000e+00  -5.8645528026942761e-01 2.3070188929531811e-02 0.0000000000000000e+00  -5.9423836422152199e-01 2.5265381538157636e-02 0.0000000000000000e+00  -6.0286738278638363e-01 2.7588001085008151e-02 0.0000000000000000e+00  -6.1239509217784671e-01 3.0051772176922110e-02 0.0000000000000000e+00  -6.2287738308494234e-01 3.2671719412240056e-02 0.0000000000000000e+00  -6.3437356969774572e-01 3.5464371216179714e-02 0.0000000000000000e+00  -6.4694672255562669e-01 3.8448001818462196e-02 0.0000000000000000e+00  -6.6066405262355221e-01 4.1642920399560523e-02 0.0000000000000000e+00  -6.7559735553320432e-01 4.5071818872665655e-02 0.0000000000000000e+00  -6.9182352678565717e-01 4.8760192968973756e-02 0.0000000000000000e+00  -7.0942516097937558e-01 5.2736855528332495e-02 0.0000000000000000e+00  -7.2849125087757782e-01 5.7034566541101943e-02 0.0000000000000000e+00  -7.4911800545282614e-01 6.1690812076233961e-02 0.0000000000000000e+00  -7.7140981002760678e-01 6.6748774527251920e-02 0.0000000000000000e+00  -7.9548035632805658e-01 7.2258550712727507e-02 0.0000000000000000e+00  -8.2145397567178347e-01 7.8278693878681915e-02 0.0000000000000000e+00  -8.4946721445269913e-01 8.4878182920551423e-02 0.0000000000000000e+00  -8.7967069705702683e-01 9.2138960660724870e-02 0.0000000000000000e+00  -9.1223132617505653e-01 1.0015923801364135e-01 0.0000000000000000e+00  -9.4733487162981689e-01 1.0905784024139049e-01 0.0000000000000000e+00  -9.8518899131071880e-01 1.1897998725484633e-01 0.0000000000000000e+00  -1.0260267010422337e+00 1.3010507035623622e-01 0.0000000000000000e+00  -1.0701102454449949e+00 1.4265724079932318e-01 0.0000000000000000e+00  -1.1177351741110186e+00 1.5692000287166946e-01 0.0000000000000000e+00  -1.1692341386401088e+00 1.7325656674707332e-01 0.0000000000000000e+00  -1.2249792607942687e+00 1.9213854576143433e-01 0.0000000000000000e+00  -1.2853808875104666e+00 2.1418677211435419e-01 0.0000000000000000e+00  -1.3508772886846701e+00 2.4022958006841164e-01 0.0000000000000000e+00  -1.4219081537367584e+00 2.7138567945093994e-01 0.0000000000000000e+00  -1.4988427300587417e+00 3.0917947600294798e-01 0.0000000000000000e+00  -1.5818655992211674e+00 3.5569272855082407e-01 0.0000000000000000e+00  -1.6705953992055154e+00 4.1373927537174254e-01 0.0000000000000000e+00  -1.7639527269167361e+00 4.8698486229223004e-01 0.0000000000000000e+00  -1.8576070957061985e+00 5.7978340986422916e-01 0.0000000000000000e+00  -1.9493784463109112e+00 6.9642718566240935e-01 0.0000000000000000e+00  -2.0096352395599641e+00 8.3717931258761147e-01 0.0000000000000000e+00  -2.1037543146580924e+00 9.9971852413201123e-01 0.0000000000000000e+00  -5.4046973215482452e-01 3.9648216384008794e-07 0.0000000000000000e+00  -5.4126141445610920e-01 1.7656246286012242e-03 0.0000000000000000e+00  -5.4160126656716578e-01 3.5393516404105337e-03 0.0000000000000000e+00  -5.4248835653006988e-01 5.3287725313224624e-03 0.0000000000000000e+00  -5.4371468259823164e-01 7.1422442444607154e-03 0.0000000000000000e+00  -5.4536322461736586e-01 8.9881875548100485e-03 0.0000000000000000e+00  -5.4745020810427014e-01 1.0875254881597346e-02 0.0000000000000000e+00  -5.5000922174400091e-01 1.2812370573986449e-02 0.0000000000000000e+00  -5.5307196017125171e-01 1.4808858871772433e-02 0.0000000000000000e+00  -5.5667257319016983e-01 1.6874480388465431e-02 0.0000000000000000e+00  -5.6084682443932932e-01 1.9019507042698194e-02 0.0000000000000000e+00  -5.6563236053138899e-01 2.1254807141867497e-02 0.0000000000000000e+00  -5.7106877459199912e-01 2.3591933046585994e-02 0.0000000000000000e+00  -5.7719772555008719e-01 2.6043223552397483e-02 0.0000000000000000e+00  -5.8406306749166470e-01 2.8621918627301613e-02 0.0000000000000000e+00  -5.9171099877154076e-01 3.1342290875389797e-02 0.0000000000000000e+00  -6.0019023216329170e-01 3.4219796817313720e-02 0.0000000000000000e+00  -6.0955218887758200e-01 3.7271252310706215e-02 0.0000000000000000e+00  -6.1985121966159540e-01 4.0515037332064845e-02 0.0000000000000000e+00  -6.3114485674672371e-01 4.3971336602306503e-02 0.0000000000000000e+00  -6.4349410106557836e-01 4.7662424132462765e-02 0.0000000000000000e+00  -6.5696374990720785e-01 5.1613001812552101e-02 0.0000000000000000e+00  -6.7162277103649304e-01 5.5850604809322149e-02 0.0000000000000000e+00  -6.8754473026246354e-01 6.0406089970050786e-02 0.0000000000000000e+00  -7.0480828048746902e-01 6.5314227915584583e-02 0.0000000000000000e+00  -7.23497