<?xml version="1.0"?>
<VTKFile type="UnstructuredGrid"  version="0.1"  >
<UnstructuredGrid>
<Piece  NumberOfPoints="2601" NumberOfCells="5000">
<Points>
<DataArray  type="Float64"  NumberOfComponents="3"  format="ascii">0 0 0  0.02 0 0  0.04 0 0  0.06 0 0  0.08 0 0  0.1 0 0  0.12 0 0  0.14 0 0  0.16 0 0  0.18 0 0  0.2 0 0  0.22 0 0  0.24 0 0  0.26 0 0  0.28 0 0  0.3 0 0  0.32 0 0  0.34 0 0  0.36 0 0  0.38 0 0  0.4 0 0  0.42 0 0  0.44 0 0  0.46 0 0  0.48 0 0  0.5 0 0  0.52 0 0  0.54 0 0  0.5600000000000001 0 0  0.58 0 0  0.6 0 0  0.62 0 0  0.64 0 0  0.66 0 0  0.68 0 0  0.7 0 0  0.72 0 0  0.74 0 0  0.76 0 0  0.78 0 0  0.8 0 0  0.82 0 0  0.84 0 0  0.86 0 0  0.88 0 0  0.9 0 0  0.92 0 0  0.9399999999999999 0 0  0.96 0 0  0.98 0 0  1 0 0  0 0.02 0  0.02 0.02 0  0.04 0.02 0  0.06 0.02 0  0.08 0.02 0  0.1 0.02 0  0.12 0.02 0  0.14 0.02 0  0.16 0.02 0  0.18 0.02 0  0.2 0.02 0  0.22 0.02 0  0.24 0.02 0  0.26 0.02 0  0.28 0.02 0  0.3 0.02 0  0.32 0.02 0  0.34 0.02 0  0.36 0.02 0  0.38 0.02 0  0.4 0.02 0  0.42 0.02 0  0.44 0.02 0  0.46 0.02 0  0.48 0.02 0  0.5 0.02 0  0.52 0.02 0  0.54 0.02 0  0.5600000000000001 0.02 0  0.58 0.02 0  0.6 0.02 0  0.62 0.02 0  0.64 0.02 0  0.66 0.02 0  0.68 0.02 0  0.7 0.02 0  0.72 0.02 0  0.74 0.02 0  0.76 0.02 0  0.78 0.02 0  0.8 0.02 0  0.82 0.02 0  0.84 0.02 0  0.86 0.02 0  0.88 0.02 0  0.9 0.02 0  0.92 0.02 0  0.9399999999999999 0.02 0  0.96 0.02 0  0.98 0.02 0  1 0.02 0  0 0.04 0  0.02 0.04 0  0.04 0.04 0  0.06 0.04 0  0.08 0.04 0  0.1 0.04 0  0.12 0.04 0  0.14 0.04 0  0.16 0.04 0  0.18 0.04 0  0.2 0.04 0  0.22 0.04 0  0.24 0.04 0  0.26 0.04 0  0.28 0.04 0  0.3 0.04 0  0.32 0.04 0  0.34 0.04 0  0.36 0.04 0  0.38 0.04 0  0.4 0.04 0  0.42 0.04 0  0.44 0.04 0  0.46 0.04 0  0.48 0.04 0  0.5 0.04 0  0.52 0.04 0  0.54 0.04 0  0.5600000000000001 0.04 0  0.58 0.04 0  0.6 0.04 0  0.62 0.04 0  0.64 0.04 0  0.66 0.04 0  0.68 0.04 0  0.7 0.04 0  0.72 0.04 0  0.74 0.04 0  0.76 0.04 0  0.78 0.04 0  0.8 0.04 0  0.82 0.04 0  0.84 0.04 0  0.86 0.04 0  0.88 0.04 0  0.9 0.04 0  0.92 0.04 0  0.9399999999999999 0.04 0  0.96 0.04 0  0.98 0.04 0  1 0.04 0  0 0.06 0  0.02 0.06 0  0.04 0.06 0  0.06 0.06 0  0.08 0.06 0  0.1 0.06 0  0.12 0.06 0  0.14 0.06 0  0.16 0.06 0  0.18 0.06 0  0.2 0.06 0  0.22 0.06 0  0.24 0.06 0  0.26 0.06 0  0.28 0.06 0  0.3 0.06 0  0.32 0.06 0  0.34 0.06 0  0.36 0.06 0  0.38 0.06 0  0.4 0.06 0  0.42 0.06 0  0.44 0.06 0  0.46 0.06 0  0.48 0.06 0  0.5 0.06 0  0.52 0.06 0  0.54 0.06 0  0.5600000000000001 0.06 0  0.58 0.06 0  0.6 0.06 0  0.62 0.06 0  0.64 0.06 0  0.66 0.06 0  0.68 0.06 0  0.7 0.06 0  0.72 0.06 0  0.74 0.06 0  0.76 0.06 0  0.78 0.06 0  0.8 0.06 0  0.82 0.06 0  0.84 0.06 0  0.86 0.06 0  0.88 0.06 0  0.9 0.06 0  0.92 0.06 0  0.9399999999999999 0.06 0  0.96 0.06 0  0.98 0.06 0  1 0.06 0  0 0.08 0  0.02 0.08 0  0.04 0.08 0  0.06 0.08 0  0.08 0.08 0  0.1 0.08 0  0.12 0.08 0  0.14 0.08 0  0.16 0.08 0  0.18 0.08 0  0.2 0.08 0  0.22 0.08 0  0.24 0.08 0  0.26 0.08 0  0.28 0.08 0  0.3 0.08 0  0.32 0.08 0  0.34 0.08 0  0.36 0.08 0  0.38 0.08 0  0.4 0.08 0  0.42 0.08 0  0.44 0.08 0  0.46 0.08 0  0.48 0.08 0  0.5 0.08 0  0.52 0.08 0  0.54 0.08 0  0.5600000000000001 0.08 0  0.58 0.08 0  0.6 0.08 0  0.62 0.08 0  0.64 0.08 0  0.66 0.08 0  0.68 0.08 0  0.7 0.08 0  0.72 0.08 0  0.74 0.08 0  0.76 0.08 0  0.78 0.08 0  0.8 0.08 0  0.82 0.08 0  0.84 0.08 0  0.86 0.08 0  0.88 0.08 0  0.9 0.08 0  0.92 0.08 0  0.9399999999999999 0.08 0  0.96 0.08 0  0.98 0.08 0  1 0.08 0  0 0.1 0  0.02 0.1 0  0.04 0.1 0  0.06 0.1 0  0.08 0.1 0  0.1 0.1 0  0.12 0.1 0  0.14 0.1 0  0.16 0.1 0  0.18 0.1 0  0.2 0.1 0  0.22 0.1 0  0.24 0.1 0  0.26 0.1 0  0.28 0.1 0  0.3 0.1 0  0.32 0.1 0  0.34 0.1 0  0.36 0.1 0  0.38 0.1 0  0.4 0.1 0  0.42 0.1 0  0.44 0.1 0  0.46 0.1 0  0.48 0.1 0  0.5 0.1 0  0.52 0.1 0  0.54 0.1 0  0.5600000000000001 0.1 0  0.58 0.1 0  0.6 0.1 0  0.62 0.1 0  0.64 0.1 0  0.66 0.1 0  0.68 0.1 0  0.7 0.1 0  0.72 0.1 0  0.74 0.1 0  0.76 0.1 0  0.78 0.1 0  0.8 0.1 0  0.82 0.1 0  0.84 0.1 0  0.86 0.1 0  0.88 0.1 0  0.9 0.1 0  0.92 0.1 0  0.9399999999999999 0.1 0  0.96 0.1 0  0.98 0.1 0  1 0.1 0  0 0.12 0  0.02 0.12 0  0.04 0.12 0  0.06 0.12 0  0.08 0.12 0  0.1 0.12 0  0.12 0.12 0  0.14 0.12 0  0.16 0.12 0  0.18 0.12 0  0.2 0.12 0  0.22 0.12 0  0.24 0.12 0  0.26 0.12 0  0.28 0.12 0  0.3 0.12 0  0.32 0.12 0  0.34 0.12 0  0.36 0.12 0  0.38 0.12 0  0.4 0.12 0  0.42 0.12 0  0.44 0.12 0  0.46 0.12 0  0.48 0.12 0  0.5 0.12 0  0.52 0.12 0  0.54 0.12 0  0.5600000000000001 0.12 0  0.58 0.12 0  0.6 0.12 0  0.62 0.12 0  0.64 0.12 0  0.66 0.12 0  0.68 0.12 0  0.7 0.12 0  0.72 0.12 0  0.74 0.12 0  0.76 0.12 0  0.78 0.12 0  0.8 0.12 0  0.82 0.12 0  0.84 0.12 0  0.86 0.12 0  0.88 0.12 0  0.9 0.12 0  0.92 0.12 0  0.9399999999999999 0.12 0  0.96 0.12 0  0.98 0.12 0  1 0.12 0  0 0.14 0  0.02 0.14 0  0.04 0.14 0  0.06 0.14 0  0.08 0.14 0  0.1 0.14 0  0.12 0.14 0  0.14 0.14 0  0.16 0.14 0  0.18 0.14 0  0.2 0.14 0  0.22 0.14 0  0.24 0.14 0  0.26 0.14 0  0.28 0.14 0  0.3 0.14 0  0.32 0.14 0  0.34 0.14 0  0.36 0.14 0  0.38 0.14 0  0.4 0.14 0  0.42 0.14 0  0.44 0.14 0  0.46 0.14 0  0.48 0.14 0  0.5 0.14 0  0.52 0.14 0  0.54 0.14 0  0.5600000000000001 0.14 0  0.58 0.14 0  0.6 0.14 0  0.62 0.14 0  0.64 0.14 0  0.66 0.14 0  0.68 0.14 0  0.7 0.14 0  0.72 0.14 0  0.74 0.14 0  0.76 0.14 0  0.78 0.14 0  0.8 0.14 0  0.82 0.14 0  0.84 0.14 0  0.86 0.14 0  0.88 0.14 0  0.9 0.14 0  0.92 0.14 0  0.9399999999999999 0.14 0  0.96 0.14 0  0.98 0.14 0  1 0.14 0  0 0.16 0  0.02 0.16 0  0.04 0.16 0  0.06 0.16 0  0.08 0.16 0  0.1 0.16 0  0.12 0.16 0  0.14 0.16 0  0.16 0.16 0  0.18 0.16 0  0.2 0.16 0  0.22 0.16 0  0.24 0.16 0  0.26 0.16 0  0.28 0.16 0  0.3 0.16 0  0.32 0.16 0  0.34 0.16 0  0.36 0.16 0  0.38 0.16 0  0.4 0.16 0  0.42 0.16 0  0.44 0.16 0  0.46 0.16 0  0.48 0.16 0  0.5 0.16 0  0.52 0.16 0  0.54 0.16 0  0.5600000000000001 0.16 0  0.58 0.16 0  0.6 0.16 0  0.62 0.16 0  0.64 0.16 0  0.66 0.16 0  0.68 0.16 0  0.7 0.16 0  0.72 0.16 0  0.74 0.16 0  0.76 0.16 0  0.78 0.16 0  0.8 0.16 0  0.82 0.16 0  0.84 0.16 0  0.86 0.16 0  0.88 0.16 0  0.9 0.16 0  0.92 0.16 0  0.9399999999999999 0.16 0  0.96 0.16 0  0.98 0.16 0  1 0.16 0  0 0.18 0  0.02 0.18 0  0.04 0.18 0  0.06 0.18 0  0.08 0.18 0  0.1 0.18 0  0.12 0.18 0  0.14 0.18 0  0.16 0.18 0  0.18 0.18 0  0.2 0.18 0  0.22 0.18 0  0.24 0.18 0  0.26 0.18 0  0.28 0.18 0  0.3 0.18 0  0.32 0.18 0  0.34 0.18 0  0.36 0.18 0  0.38 0.18 0  0.4 0.18 0  0.42 0.18 0  0.44 0.18 0  0.46 0.18 0  0.48 0.18 0  0.5 0.18 0  0.52 0.18 0  0.54 0.18 0  0.5600000000000001 0.18 0  0.58 0.18 0  0.6 0.18 0  0.62 0.18 0  0.64 0.18 0  0.66 0.18 0  0.68 0.18 0  0.7 0.18 0  0.72 0.18 0  0.74 0.18 0  0.76 0.18 0  0.78 0.18 0  0.8 0.18 0  0.82 0.18 0  0.84 0.18 0  0.86 0.18 0  0.88 0.18 0  0.9 0.18 0  0.92 0.18 0  0.9399999999999999 0.18 0  0.96 0.18 0  0.98 0.18 0  1 0.18 0  0 0.2 0  0.02 0.2 0  0.04 0.2 0  0.06 0.2 0  0.08 0.2 0  0.1 0.2 0  0.12 0.2 0  0.14 0.2 0  0.16 0.2 0  0.18 0.2 0  0.2 0.2 0  0.22 0.2 0  0.24 0.2 0  0.26 0.2 0  0.28 0.2 0  0.3 0.2 0  0.32 0.2 0  0.34 0.2 0  0.36 0.2 0  0.38 0.2 0  0.4 0.2 0  0.42 0.2 0  0.44 0.2 0  0.46 0.2 0  0.48 0.2 0  0.5 0.2 0  0.52 0.2 0  0.54 0.2 0  0.5600000000000001 0.2 0  0.58 0.2 0  0.6 0.2 0  0.62 0.2 0  0.64 0.2 0  0.66 0.2 0  0.68 0.2 0  0.7 0.2 0  0.72 0.2 0  0.74 0.2 0  0.76 0.2 0  0.78 0.2 0  0.8 0.2 0  0.82 0.2 0  0.84 0.2 0  0.86 0.2 0  0.88 0.2 0  0.9 0.2 0  0.92 0.2 0  0.9399999999999999 0.2 0  0.96 0.2 0  0.98 0.2 0  1 0.2 0  0 0.22 0  0.02 0.22 0  0.04 0.22 0  0.06 0.22 0  0.08 0.22 0  0.1 0.22 0  0.12 0.22 0  0.14 0.22 0  0.16 0.22 0  0.18 0.22 0  0.2 0.22 0  0.22 0.22 0  0.24 0.22 0  0.26 0.22 0  0.28 0.22 0  0.3 0.22 0  0.32 0.22 0  0.34 0.22 0  0.36 0.22 0  0.38 0.22 0  0.4 0.22 0  0.42 0.22 0  0.44 0.22 0  0.46 0.22 0  0.48 0.22 0  0.5 0.22 0  0.52 0.22 0  0.54 0.22 0  0.5600000000000001 0.22 0  0.58 0.22 0  0.6 0.22 0  0.62 0.22 0  0.64 0.22 0  0.66 0.22 0  0.68 0.22 0  0.7 0.22 0  0.72 0.22 0  0.74 0.22 0  0.76 0.22 0  0.78 0.22 0  0.8 0.22 0  0.82 0.22 0  0.84 0.22 0  0.86 0.22 0  0.88 0.22 0  0.9 0.22 0  0.92 0.22 0  0.9399999999999999 0.22 0  0.96 0.22 0  0.98 0.22 0  1 0.22 0  0 0.24 0  0.02 0.24 0  0.04 0.24 0  0.06 0.24 0  0.08 0.24 0  0.1 0.24 0  0.12 0.24 0  0.14 0.24 0  0.16 0.24 0  0.18 0.24 0  0.2 0.24 0  0.22 0.24 0  0.24 0.24 0  0.26 0.24 0  0.28 0.24 0  0.3 0.24 0  0.32 0.24 0  0.34 0.24 0  0.36 0.24 0  0.38 0.24 0  0.4 0.24 0  0.42 0.24 0  0.44 0.24 0  0.46 0.24 0  0.48 0.24 0  0.5 0.24 0  0.52 0.24 0  0.54 0.24 0  0.5600000000000001 0.24 0  0.58 0.24 0  0.6 0.24 0  0.62 0.24 0  0.64 0.24 0  0.66 0.24 0  0.68 0.24 0  0.7 0.24 0  0.72 0.24 0  0.74 0.24 0  0.76 0.24 0  0.78 0.24 0  0.8 0.24 0  0.82 0.24 0  0.84 0.24 0  0.86 0.24 0  0.88 0.24 0  0.9 0.24 0  0.92 0.24 0  0.9399999999999999 0.24 0  0.96 0.24 0  0.98 0.24 0  1 0.24 0  0 0.26 0  0.02 0.26 0  0.04 0.26 0  0.06 0.26 0  0.08 0.26 0  0.1 0.26 0  0.12 0.26 0  0.14 0.26 0  0.16 0.26 0  0.18 0.26 0  0.2 0.26 0  0.22 0.26 0  0.24 0.26 0  0.26 0.26 0  0.28 0.26 0  0.3 0.26 0  0.32 0.26 0  0.34 0.26 0  0.36 0.26 0  0.38 0.26 0  0.4 0.26 0  0.42 0.26 0  0.44 0.26 0  0.46 0.26 0  0.48 0.26 0  0.5 0.26 0  0.52 0.26 0  0.54 0.26 0  0.5600000000000001 0.26 0  0.58 0.26 0  0.6 0.26 0  0.62 0.26 0  0.64 0.26 0  0.66 0.26 0  0.68 0.26 0  0.7 0.26 0  0.72 0.26 0  0.74 0.26 0  0.76 0.26 0  0.78 0.26 0  0.8 0.26 0  0.82 0.26 0  0.84 0.26 0  0.86 0.26 0  0.88 0.26 0  0.9 0.26 0  0.92 0.26 0  0.9399999999999999 0.26 0  0.96 0.26 0  0.98 0.26 0  1 0.26 0  0 0.28 0  0.02 0.28 0  0.04 0.28 0  0.06 0.28 0  0.08 0.28 0  0.1 0.28 0  0.12 0.28 0  0.14 0.28 0  0.16 0.28 0  0.18 0.28 0  0.2 0.28 0  0.22 0.28 0  0.24 0.28 0  0.26 0.28 0  0.28 0.28 0  0.3 0.28 0  0.32 0.28 0  0.34 0.28 0  0.36 0.28 0  0.38 0.28 0  0.4 0.28 0  0.42 0.28 0  0.44 0.28 0  0.46 0.28 0  0.48 0.28 0  0.5 0.28 0  0.52 0.28 0  0.54 0.28 0  0.5600000000000001 0.28 0  0.58 0.28 0  0.6 0.28 0  0.62 0.28 0  0.64 0.28 0  0.66 0.28 0  0.68 0.28 0  0.7 0.28 0  0.72 0.28 0  0.74 0.28 0  0.76 0.28 0  0.78 0.28 0  0.8 0.28 0  0.82 0.28 0  0.84 0.28 0  0.86 0.28
[...]
<PointData  Vectors="f_198"> 
<DataArray  type="Float64"  Name="f_198"  NumberOfComponents="3" format="ascii">-6.1852356849367551e-01 -2.2896305179870065e-05 0.0000000000000000e+00  -6.1869003195888650e-01 1.1753456014664331e-04 0.0000000000000000e+00  -6.1907334329925590e-01 2.2217725068531506e-04 0.0000000000000000e+00  -6.1973743305666695e-01 3.3061636997208004e-04 0.0000000000000000e+00  -6.2069675112234446e-01 4.4021528783346468e-04 0.0000000000000000e+00  -6.2196824533667616e-01 5.5158673175562437e-04 0.0000000000000000e+00  -6.2357240180164630e-01 6.6538719391195705e-04 0.0000000000000000e+00  -6.2553169754762361e-01 7.8214471014575028e-04 0.0000000000000000e+00  -6.2787087378530759e-01 9.0242633601478003e-04 0.0000000000000000e+00  -6.3061696431054837e-01 1.0268182836729123e-03 0.0000000000000000e+00  -6.3379936782393065e-01 1.1559354506264913e-03 0.0000000000000000e+00  -6.3744994370229491e-01 1.2904274684108457e-03 0.0000000000000000e+00  -6.4160312553963383e-01 1.4309846820802327e-03 0.0000000000000000e+00  -6.4629605575978499e-01 1.5783448609047804e-03 0.0000000000000000e+00  -6.5156874354039618e-01 1.7333007123775483e-03 0.0000000000000000e+00  -6.5746424945205151e-01 1.8967084823237968e-03 0.0000000000000000e+00  -6.6402890107981349e-01 2.0694979074550967e-03 0.0000000000000000e+00  -6.7131254489957348e-01 2.2526838409883776e-03 0.0000000000000000e+00  -6.7936884090191418e-01 2.4473799430461195e-03 0.0000000000000000e+00  -6.8825560796345175e-01 2.6548149255329031e-03 0.0000000000000000e+00  -6.9803522985745747e-01 2.8763519691345140e-03 0.0000000000000000e+00  -7.0877513419236604e-01 3.1135120995399645e-03 0.0000000000000000e+00  -7.2054835963208808e-01 3.3680025347961927e-03 0.0000000000000000e+00  -7.3343423070912928e-01 3.6417513166910271e-03 0.0000000000000000e+00  -7.4751916468922064e-01 3.9369499434090335e-03 0.0000000000000000e+00  -7.6289764171486718e-01 4.2561062741648713e-03 0.0000000000000000e+00  -7.7967337843258167e-01 4.6021107365167005e-03 0.0000000000000000e+00  -7.9796075735479877e-01 4.9783199297132753e-03 0.0000000000000000e+00  -8.1788658054585384e-01 5.3886632164129120e-03 0.0000000000000000e+00  -8.3959223866696153e-01 5.8377800464313751e-03 0.0000000000000000e+00  -8.6323641766164960e-01 6.3311988869505335e-03 0.0000000000000000e+00  -8.8899850950206227e-01 6.8755732705080598e-03 0.0000000000000000e+00  -9.1708295679595953e-01 7.4789974681538987e-03 0.0000000000000000e+00  -9.4772485358401737e-01 8.1514350706723415e-03 0.0000000000000000e+00  -9.8119726276433739e-01 8.9053107402942717e-03 0.0000000000000000e+00  -1.0178209197604122e+00 9.7563428443256245e-03 0.0000000000000000e+00  -1.0579773224474187e+00 1.0724740397485600e-02 0.0000000000000000e+00  -1.1021267197613567e+00 1.1836966106541275e-02 0.0000000000000000e+00  -1.1508334278857861e+00 1.3128409076259574e-02 0.0000000000000000e+00  -1.2048021887012166e+00 1.4647570682573358e-02 0.0000000000000000e+00  -1.2649327271251698e+00 1.6462889535562259e-02 0.0000000000000000e+00  -1.3324015596442380e+00 1.8674553441226701e-02 0.0000000000000000e+00  -1.4088021034187996e+00 2.1435705934595869e-02 0.0000000000000000e+00  -1.4963455540913311e+00 2.4996335176638320e-02 0.0000000000000000e+00  -1.5984052181209183e+00 2.9816623708346614e-02 0.0000000000000000e+00  -1.7196655795172329e+00 3.6739675232031296e-02 0.0000000000000000e+00  -1.8715038725204829e+00 4.8611514486396550e-02 0.0000000000000000e+00  -2.0612623354011861e+00 7.2249325330250080e-02 0.0000000000000000e+00  -2.3665796865717601e+00 1.3588554169265046e-01 0.0000000000000000e+00  -2.8723140933427138e+00 4.5902359593650977e-01 0.0000000000000000e+00  -3.6928860927881506e+00 1.3367927612069146e+00 0.0000000000000000e+00  -6.1827121415923225e-01 7.3164872566954646e-06 0.0000000000000000e+00  -6.1851856035388120e-01 3.6665425683839496e-04 0.0000000000000000e+00  -6.1888284577423236e-01 7.0670186440133459e-04 0.0000000000000000e+00  -6.1954907422241579e-01 1.0564369797263818e-03 0.0000000000000000e+00  -6.2050541123034031e-01 1.4085288186503314e-03 0.0000000000000000e+00  -6.2177325709236431e-01 1.7669674502971439e-03 0.0000000000000000e+00  -6.2337282713399256e-01 2.1332219506110081e-03 0.0000000000000000e+00  -6.2532656244824114e-01 2.5090599208461707e-03 0.0000000000000000e+00  -6.2765919004283688e-01 2.8962844663711555e-03 0.0000000000000000e+00  -6.3039769688250513e-01 3.2967656301299488e-03 0.0000000000000000e+00  -6.3357142781670994e-01 3.7124678739583247e-03 0.0000000000000000e+00  -6.3721217782753925e-01 4.1454664937643016e-03 0.0000000000000000e+00  -6.4135430515742520e-01 4.5979673638746107e-03 0.0000000000000000e+00  -6.4603486477093597e-01 5.0723282625821957e-03 0.0000000000000000e+00  -6.5129376462781696e-01 5.5710829186202447e-03 0.0000000000000000e+00  -6.5717394826139075e-01 6.0969685458477849e-03 0.0000000000000000e+00  -6.6372160783698098e-01 6.6529577128575405e-03 0.0000000000000000e+00  -6.7098643286416970e-01 7.2422955711627128e-03 0.0000000000000000e+00  -6.7902190091387316e-01 7.8685436939297821e-03 0.0000000000000000e+00  -6.8788561815122196e-01 8.5356320885902233e-03 0.0000000000000000e+00  -6.9763971932670477e-01 9.2479213565792757e-03 0.0000000000000000e+00  -7.0835133918567783e-01 1.0010277514345479e-02 0.0000000000000000e+00  -7.2009317021203234e-01 1.0828162706150730e-02 0.0000000000000000e+00  -7.3294412543042453e-01 1.1707745997310446e-02 0.0000000000000000e+00  -7.4699012993197400e-01 1.2656039726018926e-02 0.0000000000000000e+00  -7.6232507126374505e-01 1.3681068649423403e-02 0.0000000000000000e+00  -7.7905194738463590e-01 1.4792081537559818e-02 0.0000000000000000e+00  -7.9728426233216410e-01 1.5999818237887452e-02 0.0000000000000000e+00  -8.1714773520066109e-01 1.7316849988072199e-02 0.0000000000000000e+00  -8.3878240915825542e-01 1.8758017559998178e-02 0.0000000000000000e+00  -8.6234527647920411e-01 2.0341001708029563e-02 0.0000000000000000e+00  -8.8801357662411196e-01 2.2087075008767564e-02 0.0000000000000000e+00  -9.1598898290718345e-01 2.4022106170268027e-02 0.0000000000000000e+00  -9.4650297801259664e-01 2.6177921649009114e-02 0.0000000000000000e+00  -9.7982384363544417e-01 2.8594182398311376e-02 0.0000000000000000e+00  -1.0162658771975968e+00 3.1321018802214717e-02 0.0000000000000000e+00  -1.0562017382351181e+00 3.4422807747449949e-02 0.0000000000000000e+00  -1.1000792779578827e+00 3.7983716109478698e-02 0.0000000000000000e+00  -1.1484449534525634e+00 4.2116059384826487e-02 0.0000000000000000e+00  -1.2019770925854139e+00 4.6973302765153636e-02 0.0000000000000000e+00  -1.2615346059013968e+00 5.2771046511707692e-02 0.0000000000000000e+00  -1.3282294979954203e+00 5.9822330275294988e-02 0.0000000000000000e+00  -1.4035421387351181e+00 6.8600228887722797e-02 0.0000000000000000e+00  -1.4894976672703997e+00 7.9856752168724149e-02 0.0000000000000000e+00  -1.5889888659271176e+00 9.4853773018253998e-02 0.0000000000000000e+00  -1.7062466326102008e+00 1.1591061108047483e-01 0.0000000000000000e+00  -1.8480212913679546e+00 1.4760661640644063e-01 0.0000000000000000e+00  -2.0223780786515566e+00 1.9899365219395029e-01 0.0000000000000000e+00  -2.2581988069850514e+00 2.9847645085492158e-01 0.0000000000000000e+00  -2.4703628715658379e+00 4.7013036045503137e-01 0.0000000000000000e+00  -2.9556028000836050e+00 8.6712422031628111e-01 0.0000000000000000e+00  -6.1759838023841684e-01 -1.0200038710150343e-06 0.0000000000000000e+00  -6.1798060612556638e-01 7.4412095789508435e-04 0.0000000000000000e+00  -6.1831467888824343e-01 1.4988233211358820e-03 0.0000000000000000e+00  -6.1898173579509308e-01 2.2604727942078088e-03 0.0000000000000000e+00  -6.1992822094773903e-01 3.0304560852863296e-03 0.0000000000000000e+00  -6.2118502746828685e-01 3.8142286763971052e-03 0.0000000000000000e+00  -6.2277050978571180e-01 4.6148855686405045e-03 0.0000000000000000e+00  -6.2470732391224926e-01 5.4363442430434466e-03 0.0000000000000000e+00  -6.2702006630449403e-01 6.2824878547882174e-03 0.0000000000000000e+00  -6.2973558763549708e-01 7.1573862015718737e-03 0.0000000000000000e+00  -6.3288306938104377e-01 8.0653091905289274e-03 0.0000000000000000e+00  -6.3649411198852668e-01 9.0107667428778165e-03 0.0000000000000000e+00  -6.4060284698389991e-01 9.9985504654642211e-03 0.0000000000000000e+00  -6.4524606633523784e-01 1.1033779170491313e-02 0.0000000000000000e+00  -6.5046337379704433e-01 1.2121950449886629e-02 0.0000000000000000e+00  -6.5629736126964611e-01 1.3268999660908002e-02 0.0000000000000000e+00  -6.6279381416421412e-01 1.4481368142414680e-02 0.0000000000000000e+00  -6.7000195063616019e-01 1.5766082801724146e-02 0.0000000000000000e+00  -6.7797470060990139e-01 1.7130849703729346e-02 0.0000000000000000e+00  -6.8676903184314086e-01 1.8584164944240564e-02 0.0000000000000000e+00  -6.9644633193265337e-01 2.0135446941931315e-02 0.0000000000000000e+00  -7.0707285724529645e-01 2.1795195404717114e-02 0.0000000000000000e+00  -7.1872026239399767e-01 2.3575183706649572e-02 0.0000000000000000e+00  -7.3146622724769050e-01 2.5488693381895855e-02 0.0000000000000000e+00  -7.4539520279686944e-01 2.7550802087659004e-02 0.0000000000000000e+00  -7.6059930281458488e-01 2.9778739973041535e-02 0.0000000000000000e+00  -7.7717937559956041e-01 3.2192334302559300e-02 0.0000000000000000e+00  -7.9524629977506156e-01 3.4814568986992984e-02 0.0000000000000000e+00  -8.1492256100919136e-01 3.7672295218106909e-02 0.0000000000000000e+00  -8.3634418384505349e-01 4.0797142967941791e-02 0.0000000000000000e+00  -8.5966311633772963e-01 4.4226702666731149e-02 0.0000000000000000e+00  -8.8505019743676627e-01 4.8006075002798132e-02 0.0000000000000000e+00  -9.1269888176028380e-01 5.2189929408196140e-02 0.0000000000000000e+00  -9.4282995905300471e-01 5.6845276411690460e-02 0.0000000000000000e+00  -9.7569759453805449e-01 6.2055258965787334e-02 0.0000000000000000e+00  -1.0115971432702056e+00 6.7924425756522328e-02 0.0000000000000000e+00  -1.0508753768956889e+00 7.4586205004310041e-02 0.0000000000000000e+00  -1.0939440234684670e+00 8.2213721463089362e-02 0.0000000000000000e+00  -1.1412979307516331e+00 9.1035823731735702e-02 0.0000000000000000e+00  -1.1935396408778234e+00 1.0136146476802396e-01 0.0000000000000000e+00  -1.2514132532650581e+00 1.1361789692218702e-01 0.0000000000000000e+00  -1.3158500877330028e+00 1.2841248785259632e-01 0.0000000000000000e+00  -1.3880347031066669e+00 1.4663657712871389e-01 0.0000000000000000e+00  -1.4694759023584130e+00 1.6964561918675680e-01 0.0000000000000000e+00  -1.5621525510097505e+00 1.9958814798481422e-01 0.0000000000000000e+00  -1.6683750454454291e+00 2.4001438876459083e-01 0.0000000000000000e+00  -1.7913890894299411e+00 2.9697512556305378e-01 0.0000000000000000e+00  -1.9315709110024606e+00 3.8149482485852476e-01 0.0000000000000000e+00  -2.0929318286378220e+00 5.1128430234231703e-01 0.0000000000000000e+00  -2.2268807304831784e+00 7.1413943741631780e-01 0.0000000000000000e+00  -2.4313394379623667e+00 1.0508186921364704e+00 0.0000000000000000e+00  -6.1656578318029298e-01 3.3117946573357738e-07 0.0000000000000000e+00  -6.1708166510354667e-01 1.1114548854639786e-03 0.0000000000000000e+00  -6.1737265739172231e-01 2.2259867248472162e-03 0.0000000000000000e+00  -6.1803875396795394e-01 3.3487094694760640e-03 0.0000000000000000e+00  -6.1896886193066647e-01 4.4862570868236069e-03 0.0000000000000000e+00  -6.2020735983665265e-01 5.6437715424718423e-03 0.0000000000000000e+00  -6.2176938705974905e-01 6.8264117896064723e-03 0.0000000000000000e+00  -6.2367813886906698e-01 8.0398305588634464e-03 0.0000000000000000e+00  -6.2595789801224433e-01 9.2897200087532668e-03 0.0000000000000000e+00  -6.2863530688307590e-01 1.0582071006813670e-02 0.0000000000000000e+00  -6.3173927204158575e-01 1.1923163617447505e-02 0.0000000000000000e+00  -6.3530107320976359e-01 1.3319633232359284e-02 0.0000000000000000e+00  -6.3935446863428835e-01 1.4778527677144413e-02 0.0000000000000000e+00  -6.4393581785167120e-01 1.6307373179293608e-02 0.0000000000000000e+00  -6.4908422497604457e-01 1.7914248904797370e-02 0.0000000000000000e+00  -6.5484170491438409e-01 1.9607872253820113e-02 0.0000000000000000e+00  -6.6125337627743663e-01 2.1397697435416065e-02 0.0000000000000000e+00  -6.6836768530593549e-01 2.3294030315795411e-02 0.0000000000000000e+00  -6.7623666605562727e-01 2.5308163250108894e-02 0.0000000000000000e+00  -6.8491624319798572e-01 2.7452534515972335e-02 0.0000000000000000e+00  -6.9446658517111159e-01 2.9740918152997651e-02 0.0000000000000000e+00  -7.0495251713274665e-01 3.2188651563551419e-02 0.0000000000000000e+00  -7.1644400531043728e-01 3.4812910265285664e-02 0.0000000000000000e+00  -7.2901672704007769e-01 3.7633041880925075e-02 0.0000000000000000e+00  -7.4275274418837289e-01 4.0670975045927760e-02 0.0000000000000000e+00  -7.5774130197749834e-01 4.3951723754939977e-02 0.0000000000000000e+00  -7.7407978074763584e-01 4.7504014247935607e-02 0.0000000000000000e+00  -7.9187483526679303e-01 5.1361070576336786e-02 0.0000000000000000e+00  -8.1124376530509368e-01 5.5561607545198191e-02 0.0000000000000000e+00  -8.3231617295896554e-01 6.0151097376869779e-02 0.0000000000000000e+00  -8.5523597744618773e-01 6.5183401566399873e-02 0.0000000000000000e+00  -8.8016387781122785e-01 7.0722895649657058e-02 0.0000000000000000e+00  -9.0728037941290318e-01 7.6847267664811938e-02 0.0000000000000000e+00  -9.3678953250082608e-01 8.3651249938321029e-02 0.0000000000000000e+00  -9.6892357179930511e-01 9.1251662904046502e-02 0.0000000000000000e+00  -1.0039486941817799e+00 9.9794332546549222e-02 0.0000000000000000e+00  -1.0421722651201801e+00 1.0946372889518624e-01 0.0000000000000000e+00  -1.0839517835677830e+00 1.2049662769826258e-01 0.0000000000000000e+00  -1.1297059486633858e+00 1.3320183356753784e-01 0.0000000000000000e+00  -1.1799279648387018e+00 1.4798921276851917e-01 0.0000000000000000e+00  -1.2352009635736960e+00 1.6541329719877979e-01 0.0000000000000000e+00  -1.2962130098963003e+00 1.8624008699511777e-01 0.0000000000000000e+00  -1.3637692768454841e+00 2.1155117605077087e-01 0.0000000000000000e+00  -1.4387749117056765e+00 2.4290810095994395e-01 0.0000000000000000e+00  -1.5221998541196735e+00 2.8261198036690005e-01 0.0000000000000000e+00  -1.6147382675102688e+00 3.3409472727429995e-01 0.0000000000000000e+00  -1.7168055177659780e+00 4.0250779906970136e-01 0.0000000000000000e+00  -1.8248131484574217e+00 4.9515666671301611e-01 0.0000000000000000e+00  -1.9384539235715803e+00 6.2159428980462206e-01 0.0000000000000000e+00  -2.0138395065893415e+00 7.9113241676761481e-01 0.0000000000000000e+00  -2.1361371742628856e+00 9.9062700356411049e-01 0.0000000000000000e+00  -6.1517003738613674e-01 3.4231455742123304e-07 0.0000000000000000e+00  -6.1581515750273796e-01 1.4727407452674844e-03 0.0000000000000000e+00  -6.1606221158770391e-01 2.9521230162417832e-03 0.0000000000000000e+00  -6.1672420923140669e-01 4.4446853128997195e-03 0.0000000000000000e+00  -6.1763162012919059e-01 5.9569488061231224e-03 0.0000000000000000e+00  -6.1884451362064363e-01 7.4955553423757069e-03 0.0000000000000000e+00  -6.2037383116215206e-01 9.0676614535450499e-03 0.0000000000000000e+00  -6.2224352641181568e-01 1.0680568160253503e-02 0.0000000000000000e+00  -6.2447738964426203e-01 1.2341832916373691e-02 0.0000000000000000e+00  -6.2710179154328816e-01 1.4059373730499617e-02 0.0000000000000000e+00  -6.3014525096365948e-01 1.5841494307600935e-02 0.0000000000000000e+00  -6.3363860647954862e-01 1.7696966599859101e-02 0.0000000000000000e+00  -6.3761510241187469e-01 1.9635102420905125e-02 0.0000000000000000e+00  -6.4211050433098149e-01 2.1665839143562605e-02 0.0000000000000000e+00  -6.4716323106017459e-01 2.3799835709841361e-02 0.0000000000000000e+00  -6.5281450722279566e-01 2.6048582627592767e-02 0.0000000000000000e+00  -6.5910853944083303e-01 2.8424528851311189e-02 0.0000000000000000e+00  -6.6609271979078022e-01 3.0941229293613239e-02 0.0000000000000000e+00  -6.7381786087631357e-01 3.3613517574389032e-02 0.0000000000000000e+00  -6.8233846771399753e-01 3.6457709729146012e-02 0.0000000000000000e+00  -6.9171305266341532e-01 3.9491846041536549e-02 0.0000000000000000e+00  -7.0200450089108546e-01 4.2735980034572220e-02 0.0000000000000000e+00  -7.1328049538766758e-01 4.6212526093266378e-02 0.0000000000000000e+00  -7.2561401242134094e-01 4.9946680391898778e-02 0.0000000000000000e+00  -7.3908390057700812e-01 5.3966934032124748e-02 0.0000000000000000e+00  -7.5377555928277051e-01 5.8305702941727759e-02 0.0000000000000000e+00  -7.6978173604955868e-01 6.3000106672494074e-02 0.0000000000000000e+00  -7.8720346563140897e-01 6.8092938532393316e-02 0.0000000000000000e+00  -8.0615117901171562e-01 7.3633883591276900e-02 0.0000000000000000e+00  -8.2674601552553084e-01 7.9681060609968643e-02 0.0000000000000000e+00  -8.4912137736877780e-01 8.6302991211967744e-02 0.0000000000000000e+00  -8.7342477171638955e-01 9.3581138134573194e-02 0.0000000000000000e+00  -8.9981999050128603e-01 1.0161320939028948e-01 0.0000000000000000e+00  -9.2848967905860802e-01 1.1051750453874842e-01 0.0000000000000000e+00  -9.5963833731966453e-01 1.2043869501801893e-01 0.0000000000000000e+00  -9.9349577042621229e-01 1.3155560092069382e-01 0.0000000000000000e+00  -1.0303209410698178e+00 1.4409177957361941e-01 0.0000000000000000e+00  -1.0704060273508551e+00 1.5833011859891671e-01 0.0000000000000000e+00  -1.1140802040907125e+00 1.7463318866299496e-01 0.0000000000000000e+00  -1.1617119893501346e+00 1.9347194050407188e-01 0.0000000000000000e+00  -1.2137080042837738e+00 2.1546652014838633e-01 0.0000000000000000e+00  -1.2705025815138815e+00 2.4144455125342520e-01 0.0000000000000000e+00  -1.3325315315372621e+00 2.7252400720907499e-01 0.0000000000000000e+00  -1.4001592124069626e+00 3.1022852933392320e-01 0.0000000000000000e+00  -1.4735682625317705e+00 3.5663908106518094e-01 0.0000000000000000e+00  -1.5523634784578511e+00 4.1456867078328702e-01 0.0000000000000000e+00  -1.6354952550821291e+00 4.8768217781352091e-01 0.0000000000000000e+00  -1.7184988721140826e+00 5.8033262360376014e-01 0.0000000000000000e+00  -1.7996726299208796e+00 6.9681137183681907e-01 0.0000000000000000e+00  -1.8475713026953644e+00 8.3738067235901226e-01 0.0000000000000000e+00  -1.9343358755734628e+00 9.9971874842084385e-01 0.0000000000000000e+00  -6.1341755741387205e-01 4.0041344447763359e-07 0.0000000000000000e+00  -6.1418931916744990e-01 1.8282876994194215e-03 0.0000000000000000e+00  -6.1439045685835014e-01 3.6647454123959126e-03 0.0000000000000000e+00  -6.1504368836711121e-01 5.5170461768535382e-03 0.0000000000000000e+00  -6.1592271438842205e-01 7.3936385561153579e-03 0.0000000000000000e+00  -6.1710278308927202e-01 9.3030328710809497e-03 0.0000000000000000e+00  -6.1859036971482673e-01 1.1253954454417596e-02 0.0000000000000000e+00  -6.2041026725452786e-01 1.3255378742111036e-02 0.0000000000000000e+00  -6.2258563562852531e-01 1.5316655123278990e-02 0.0000000000000000e+00  -6.2514250813502226e-01 1.7447542893436561e-02 0.0000000000000000e+00  -6.2810890886447313e-01 1.9658285973323083e-02 0.0000000000000000e+00  -6.3151512264408705e-01 2.1959698222743705e-02 0.0000000000000000e+00  -6.3539374800420911e-01 2.4363251205272676e-02 0.0000000000000000e+00  -6.3977980629422493e-01 2.6881176745866119e-02 0.0000000000000000e+00  -6.4471085911853721e-01 2.9526581707630731e-02 0.0000000000000000e+00  -6.5022714434136097e-01 3.2313579441104821e-02 0.0000000000000000e+00  -6.5637173198437759e-01 3.5257440985098663e-02 0.0000000000000000e+00  -6.6319070295034621e-01 3.8374770362375854e-02 0.0000000000000000e+00  -6.7073335387311117e-01 4.1683709202997576e-02 0.0000000000000000e+00  -6.7905243194619525e-01 4.5204177187712011e-02 0.0000000000000000e+00  -6.8820440423439933e-01 4.8958156396206251e-02 0.0000000000000000e+00  -6.9824976672260708e-01 5.2970029690512524e-02 0.0000000000000000e+00  -7.0925339921190289e-01 5.7266985904867500e-02 0.0000000000000000e+00  -7.2128497313394679e-01 6.1879508044938095e-02 0.0000000000000000e+00  -7.3441942040241914e-01 6.6841965184137292e-02 0.0000000000000000e+00  -7.48737