<?xml version="1.0"?>
<VTKFile type="UnstructuredGrid"  version="0.1"  >
<UnstructuredGrid>
<Piece  NumberOfPoints="2601" NumberOfCells="5000">
<Points>
<DataArray  type="Float64"  NumberOfComponents="3"  format="ascii">0 0 0  0.02 0 0  0.04 0 0  0.06 0 0  0.08 0 0  0.1 0 0  0.12 0 0  0.14 0 0  0.16 0 0  0.18 0 0  0.2 0 0  0.22 0 0  0.24 0 0  0.26 0 0  0.28 0 0  0.3 0 0  0.32 0 0  0.34 0 0  0.36 0 0  0.38 0 0  0.4 0 0  0.42 0 0  0.44 0 0  0.46 0 0  0.48 0 0  0.5 0 0  0.52 0 0  0.54 0 0  0.5600000000000001 0 0  0.58 0 0  0.6 0 0  0.62 0 0  0.64 0 0  0.66 0 0  0.68 0 0  0.7 0 0  0.72 0 0  0.74 0 0  0.76 0 0  0.78 0 0  0.8 0 0  0.82 0 0  0.84 0 0  0.86 0 0  0.88 0 0  0.9 0 0  0.92 0 0  0.9399999999999999 0 0  0.96 0 0  0.98 0 0  1 0 0  0 0.02 0  0.02 0.02 0  0.04 0.02 0  0.06 0.02 0  0.08 0.02 0  0.1 0.02 0  0.12 0.02 0  0.14 0.02 0  0.16 0.02 0  0.18 0.02 0  0.2 0.02 0  0.22 0.02 0  0.24 0.02 0  0.26 0.02 0  0.28 0.02 0  0.3 0.02 0  0.32 0.02 0  0.34 0.02 0  0.36 0.02 0  0.38 0.02 0  0.4 0.02 0  0.42 0.02 0  0.44 0.02 0  0.46 0.02 0  0.48 0.02 0  0.5 0.02 0  0.52 0.02 0  0.54 0.02 0  0.5600000000000001 0.02 0  0.58 0.02 0  0.6 0.02 0  0.62 0.02 0  0.64 0.02 0  0.66 0.02 0  0.68 0.02 0  0.7 0.02 0  0.72 0.02 0  0.74 0.02 0  0.76 0.02 0  0.78 0.02 0  0.8 0.02 0  0.82 0.02 0  0.84 0.02 0  0.86 0.02 0  0.88 0.02 0  0.9 0.02 0  0.92 0.02 0  0.9399999999999999 0.02 0  0.96 0.02 0  0.98 0.02 0  1 0.02 0  0 0.04 0  0.02 0.04 0  0.04 0.04 0  0.06 0.04 0  0.08 0.04 0  0.1 0.04 0  0.12 0.04 0  0.14 0.04 0  0.16 0.04 0  0.18 0.04 0  0.2 0.04 0  0.22 0.04 0  0.24 0.04 0  0.26 0.04 0  0.28 0.04 0  0.3 0.04 0  0.32 0.04 0  0.34 0.04 0  0.36 0.04 0  0.38 0.04 0  0.4 0.04 0  0.42 0.04 0  0.44 0.04 0  0.46 0.04 0  0.48 0.04 0  0.5 0.04 0  0.52 0.04 0  0.54 0.04 0  0.5600000000000001 0.04 0  0.58 0.04 0  0.6 0.04 0  0.62 0.04 0  0.64 0.04 0  0.66 0.04 0  0.68 0.04 0  0.7 0.04 0  0.72 0.04 0  0.74 0.04 0  0.76 0.04 0  0.78 0.04 0  0.8 0.04 0  0.82 0.04 0  0.84 0.04 0  0.86 0.04 0  0.88 0.04 0  0.9 0.04 0  0.92 0.04 0  0.9399999999999999 0.04 0  0.96 0.04 0  0.98 0.04 0  1 0.04 0  0 0.06 0  0.02 0.06 0  0.04 0.06 0  0.06 0.06 0  0.08 0.06 0  0.1 0.06 0  0.12 0.06 0  0.14 0.06 0  0.16 0.06 0  0.18 0.06 0  0.2 0.06 0  0.22 0.06 0  0.24 0.06 0  0.26 0.06 0  0.28 0.06 0  0.3 0.06 0  0.32 0.06 0  0.34 0.06 0  0.36 0.06 0  0.38 0.06 0  0.4 0.06 0  0.42 0.06 0  0.44 0.06 0  0.46 0.06 0  0.48 0.06 0  0.5 0.06 0  0.52 0.06 0  0.54 0.06 0  0.5600000000000001 0.06 0  0.58 0.06 0  0.6 0.06 0  0.62 0.06 0  0.64 0.06 0  0.66 0.06 0  0.68 0.06 0  0.7 0.06 0  0.72 0.06 0  0.74 0.06 0  0.76 0.06 0  0.78 0.06 0  0.8 0.06 0  0.82 0.06 0  0.84 0.06 0  0.86 0.06 0  0.88 0.06 0  0.9 0.06 0  0.92 0.06 0  0.9399999999999999 0.06 0  0.96 0.06 0  0.98 0.06 0  1 0.06 0  0 0.08 0  0.02 0.08 0  0.04 0.08 0  0.06 0.08 0  0.08 0.08 0  0.1 0.08 0  0.12 0.08 0  0.14 0.08 0  0.16 0.08 0  0.18 0.08 0  0.2 0.08 0  0.22 0.08 0  0.24 0.08 0  0.26 0.08 0  0.28 0.08 0  0.3 0.08 0  0.32 0.08 0  0.34 0.08 0  0.36 0.08 0  0.38 0.08 0  0.4 0.08 0  0.42 0.08 0  0.44 0.08 0  0.46 0.08 0  0.48 0.08 0  0.5 0.08 0  0.52 0.08 0  0.54 0.08 0  0.5600000000000001 0.08 0  0.58 0.08 0  0.6 0.08 0  0.62 0.08 0  0.64 0.08 0  0.66 0.08 0  0.68 0.08 0  0.7 0.08 0  0.72 0.08 0  0.74 0.08 0  0.76 0.08 0  0.78 0.08 0  0.8 0.08 0  0.82 0.08 0  0.84 0.08 0  0.86 0.08 0  0.88 0.08 0  0.9 0.08 0  0.92 0.08 0  0.9399999999999999 0.08 0  0.96 0.08 0  0.98 0.08 0  1 0.08 0  0 0.1 0  0.02 0.1 0  0.04 0.1 0  0.06 0.1 0  0.08 0.1 0  0.1 0.1 0  0.12 0.1 0  0.14 0.1 0  0.16 0.1 0  0.18 0.1 0  0.2 0.1 0  0.22 0.1 0  0.24 0.1 0  0.26 0.1 0  0.28 0.1 0  0.3 0.1 0  0.32 0.1 0  0.34 0.1 0  0.36 0.1 0  0.38 0.1 0  0.4 0.1 0  0.42 0.1 0  0.44 0.1 0  0.46 0.1 0  0.48 0.1 0  0.5 0.1 0  0.52 0.1 0  0.54 0.1 0  0.5600000000000001 0.1 0  0.58 0.1 0  0.6 0.1 0  0.62 0.1 0  0.64 0.1 0  0.66 0.1 0  0.68 0.1 0  0.7 0.1 0  0.72 0.1 0  0.74 0.1 0  0.76 0.1 0  0.78 0.1 0  0.8 0.1 0  0.82 0.1 0  0.84 0.1 0  0.86 0.1 0  0.88 0.1 0  0.9 0.1 0  0.92 0.1 0  0.9399999999999999 0.1 0  0.96 0.1 0  0.98 0.1 0  1 0.1 0  0 0.12 0  0.02 0.12 0  0.04 0.12 0  0.06 0.12 0  0.08 0.12 0  0.1 0.12 0  0.12 0.12 0  0.14 0.12 0  0.16 0.12 0  0.18 0.12 0  0.2 0.12 0  0.22 0.12 0  0.24 0.12 0  0.26 0.12 0  0.28 0.12 0  0.3 0.12 0  0.32 0.12 0  0.34 0.12 0  0.36 0.12 0  0.38 0.12 0  0.4 0.12 0  0.42 0.12 0  0.44 0.12 0  0.46 0.12 0  0.48 0.12 0  0.5 0.12 0  0.52 0.12 0  0.54 0.12 0  0.5600000000000001 0.12 0  0.58 0.12 0  0.6 0.12 0  0.62 0.12 0  0.64 0.12 0  0.66 0.12 0  0.68 0.12 0  0.7 0.12 0  0.72 0.12 0  0.74 0.12 0  0.76 0.12 0  0.78 0.12 0  0.8 0.12 0  0.82 0.12 0  0.84 0.12 0  0.86 0.12 0  0.88 0.12 0  0.9 0.12 0  0.92 0.12 0  0.9399999999999999 0.12 0  0.96 0.12 0  0.98 0.12 0  1 0.12 0  0 0.14 0  0.02 0.14 0  0.04 0.14 0  0.06 0.14 0  0.08 0.14 0  0.1 0.14 0  0.12 0.14 0  0.14 0.14 0  0.16 0.14 0  0.18 0.14 0  0.2 0.14 0  0.22 0.14 0  0.24 0.14 0  0.26 0.14 0  0.28 0.14 0  0.3 0.14 0  0.32 0.14 0  0.34 0.14 0  0.36 0.14 0  0.38 0.14 0  0.4 0.14 0  0.42 0.14 0  0.44 0.14 0  0.46 0.14 0  0.48 0.14 0  0.5 0.14 0  0.52 0.14 0  0.54 0.14 0  0.5600000000000001 0.14 0  0.58 0.14 0  0.6 0.14 0  0.62 0.14 0  0.64 0.14 0  0.66 0.14 0  0.68 0.14 0  0.7 0.14 0  0.72 0.14 0  0.74 0.14 0  0.76 0.14 0  0.78 0.14 0  0.8 0.14 0  0.82 0.14 0  0.84 0.14 0  0.86 0.14 0  0.88 0.14 0  0.9 0.14 0  0.92 0.14 0  0.9399999999999999 0.14 0  0.96 0.14 0  0.98 0.14 0  1 0.14 0  0 0.16 0  0.02 0.16 0  0.04 0.16 0  0.06 0.16 0  0.08 0.16 0  0.1 0.16 0  0.12 0.16 0  0.14 0.16 0  0.16 0.16 0  0.18 0.16 0  0.2 0.16 0  0.22 0.16 0  0.24 0.16 0  0.26 0.16 0  0.28 0.16 0  0.3 0.16 0  0.32 0.16 0  0.34 0.16 0  0.36 0.16 0  0.38 0.16 0  0.4 0.16 0  0.42 0.16 0  0.44 0.16 0  0.46 0.16 0  0.48 0.16 0  0.5 0.16 0  0.52 0.16 0  0.54 0.16 0  0.5600000000000001 0.16 0  0.58 0.16 0  0.6 0.16 0  0.62 0.16 0  0.64 0.16 0  0.66 0.16 0  0.68 0.16 0  0.7 0.16 0  0.72 0.16 0  0.74 0.16 0  0.76 0.16 0  0.78 0.16 0  0.8 0.16 0  0.82 0.16 0  0.84 0.16 0  0.86 0.16 0  0.88 0.16 0  0.9 0.16 0  0.92 0.16 0  0.9399999999999999 0.16 0  0.96 0.16 0  0.98 0.16 0  1 0.16 0  0 0.18 0  0.02 0.18 0  0.04 0.18 0  0.06 0.18 0  0.08 0.18 0  0.1 0.18 0  0.12 0.18 0  0.14 0.18 0  0.16 0.18 0  0.18 0.18 0  0.2 0.18 0  0.22 0.18 0  0.24 0.18 0  0.26 0.18 0  0.28 0.18 0  0.3 0.18 0  0.32 0.18 0  0.34 0.18 0  0.36 0.18 0  0.38 0.18 0  0.4 0.18 0  0.42 0.18 0  0.44 0.18 0  0.46 0.18 0  0.48 0.18 0  0.5 0.18 0  0.52 0.18 0  0.54 0.18 0  0.5600000000000001 0.18 0  0.58 0.18 0  0.6 0.18 0  0.62 0.18 0  0.64 0.18 0  0.66 0.18 0  0.68 0.18 0  0.7 0.18 0  0.72 0.18 0  0.74 0.18 0  0.76 0.18 0  0.78 0.18 0  0.8 0.18 0  0.82 0.18 0  0.84 0.18 0  0.86 0.18 0  0.88 0.18 0  0.9 0.18 0  0.92 0.18 0  0.9399999999999999 0.18 0  0.96 0.18 0  0.98 0.18 0  1 0.18 0  0 0.2 0  0.02 0.2 0  0.04 0.2 0  0.06 0.2 0  0.08 0.2 0  0.1 0.2 0  0.12 0.2 0  0.14 0.2 0  0.16 0.2 0  0.18 0.2 0  0.2 0.2 0  0.22 0.2 0  0.24 0.2 0  0.26 0.2 0  0.28 0.2 0  0.3 0.2 0  0.32 0.2 0  0.34 0.2 0  0.36 0.2 0  0.38 0.2 0  0.4 0.2 0  0.42 0.2 0  0.44 0.2 0  0.46 0.2 0  0.48 0.2 0  0.5 0.2 0  0.52 0.2 0  0.54 0.2 0  0.5600000000000001 0.2 0  0.58 0.2 0  0.6 0.2 0  0.62 0.2 0  0.64 0.2 0  0.66 0.2 0  0.68 0.2 0  0.7 0.2 0  0.72 0.2 0  0.74 0.2 0  0.76 0.2 0  0.78 0.2 0  0.8 0.2 0  0.82 0.2 0  0.84 0.2 0  0.86 0.2 0  0.88 0.2 0  0.9 0.2 0  0.92 0.2 0  0.9399999999999999 0.2 0  0.96 0.2 0  0.98 0.2 0  1 0.2 0  0 0.22 0  0.02 0.22 0  0.04 0.22 0  0.06 0.22 0  0.08 0.22 0  0.1 0.22 0  0.12 0.22 0  0.14 0.22 0  0.16 0.22 0  0.18 0.22 0  0.2 0.22 0  0.22 0.22 0  0.24 0.22 0  0.26 0.22 0  0.28 0.22 0  0.3 0.22 0  0.32 0.22 0  0.34 0.22 0  0.36 0.22 0  0.38 0.22 0  0.4 0.22 0  0.42 0.22 0  0.44 0.22 0  0.46 0.22 0  0.48 0.22 0  0.5 0.22 0  0.52 0.22 0  0.54 0.22 0  0.5600000000000001 0.22 0  0.58 0.22 0  0.6 0.22 0  0.62 0.22 0  0.64 0.22 0  0.66 0.22 0  0.68 0.22 0  0.7 0.22 0  0.72 0.22 0  0.74 0.22 0  0.76 0.22 0  0.78 0.22 0  0.8 0.22 0  0.82 0.22 0  0.84 0.22 0  0.86 0.22 0  0.88 0.22 0  0.9 0.22 0  0.92 0.22 0  0.9399999999999999 0.22 0  0.96 0.22 0  0.98 0.22 0  1 0.22 0  0 0.24 0  0.02 0.24 0  0.04 0.24 0  0.06 0.24 0  0.08 0.24 0  0.1 0.24 0  0.12 0.24 0  0.14 0.24 0  0.16 0.24 0  0.18 0.24 0  0.2 0.24 0  0.22 0.24 0  0.24 0.24 0  0.26 0.24 0  0.28 0.24 0  0.3 0.24 0  0.32 0.24 0  0.34 0.24 0  0.36 0.24 0  0.38 0.24 0  0.4 0.24 0  0.42 0.24 0  0.44 0.24 0  0.46 0.24 0  0.48 0.24 0  0.5 0.24 0  0.52 0.24 0  0.54 0.24 0  0.5600000000000001 0.24 0  0.58 0.24 0  0.6 0.24 0  0.62 0.24 0  0.64 0.24 0  0.66 0.24 0  0.68 0.24 0  0.7 0.24 0  0.72 0.24 0  0.74 0.24 0  0.76 0.24 0  0.78 0.24 0  0.8 0.24 0  0.82 0.24 0  0.84 0.24 0  0.86 0.24 0  0.88 0.24 0  0.9 0.24 0  0.92 0.24 0  0.9399999999999999 0.24 0  0.96 0.24 0  0.98 0.24 0  1 0.24 0  0 0.26 0  0.02 0.26 0  0.04 0.26 0  0.06 0.26 0  0.08 0.26 0  0.1 0.26 0  0.12 0.26 0  0.14 0.26 0  0.16 0.26 0  0.18 0.26 0  0.2 0.26 0  0.22 0.26 0  0.24 0.26 0  0.26 0.26 0  0.28 0.26 0  0.3 0.26 0  0.32 0.26 0  0.34 0.26 0  0.36 0.26 0  0.38 0.26 0  0.4 0.26 0  0.42 0.26 0  0.44 0.26 0  0.46 0.26 0  0.48 0.26 0  0.5 0.26 0  0.52 0.26 0  0.54 0.26 0  0.5600000000000001 0.26 0  0.58 0.26 0  0.6 0.26 0  0.62 0.26 0  0.64 0.26 0  0.66 0.26 0  0.68 0.26 0  0.7 0.26 0  0.72 0.26 0  0.74 0.26 0  0.76 0.26 0  0.78 0.26 0  0.8 0.26 0  0.82 0.26 0  0.84 0.26 0  0.86 0.26 0  0.88 0.26 0  0.9 0.26 0  0.92 0.26 0  0.9399999999999999 0.26 0  0.96 0.26 0  0.98 0.26 0  1 0.26 0  0 0.28 0  0.02 0.28 0  0.04 0.28 0  0.06 0.28 0  0.08 0.28 0  0.1 0.28 0  0.12 0.28 0  0.14 0.28 0  0.16 0.28 0  0.18 0.28 0  0.2 0.28 0  0.22 0.28 0  0.24 0.28 0  0.26 0.28 0  0.28 0.28 0  0.3 0.28 0  0.32 0.28 0  0.34 0.28 0  0.36 0.28 0  0.38 0.28 0  0.4 0.28 0  0.42 0.28 0  0.44 0.28 0  0.46 0.28 0  0.48 0.28 0  0.5 0.28 0  0.52 0.28 0  0.54 0.28 0  0.5600000000000001 0.28 0  0.58 0.28 0  0.6 0.28 0  0.62 0.28 0  0.64 0.28 0  0.66 0.28 0  0.68 0.28 0  0.7 0.28 0  0.72 0.28 0  0.74 0.28 0  0.76 0.28 0  0.78 0.28 0  0.8 0.28 0  0.82 0.28 0  0.84 0.28 0  0.86 0.28
[...]
<PointData  Vectors="f_250"> 
<DataArray  type="Float64"  Name="f_250"  NumberOfComponents="3" format="ascii">-5.8668709721227175e-01 -2.4001030860163325e-05 0.0000000000000000e+00  -5.8689242090659144e-01 1.1150202084774373e-04 0.0000000000000000e+00  -5.8738145003834730e-01 2.1470985188812788e-04 0.0000000000000000e+00  -5.8822187335061371e-01 3.2178020479571812e-04 0.0000000000000000e+00  -5.8943139613435802e-01 4.3018542067322935e-04 0.0000000000000000e+00  -5.9102942184053997e-01 5.4041941911192083e-04 0.0000000000000000e+00  -5.9303843932135802e-01 6.5311431212404817e-04 0.0000000000000000e+00  -5.9548260617252480e-01 7.6878812311131060e-04 0.0000000000000000e+00  -5.9838804795230538e-01 8.8800229260174843e-04 0.0000000000000000e+00  -6.0178290444159133e-01 1.0113400940320652e-03 0.0000000000000000e+00  -6.0569741389632115e-01 1.1394147586316400e-03 0.0000000000000000e+00  -6.1016401930290809e-01 1.2728751050565730e-03 0.0000000000000000e+00  -6.1521749233312895e-01 1.4124113055702897e-03 0.0000000000000000e+00  -6.2089507874656169e-01 1.5587614901832508e-03 0.0000000000000000e+00  -6.2723666768618125e-01 1.7127192066970374e-03 0.0000000000000000e+00  -6.3428498833911084e-01 1.8751419929636860e-03 0.0000000000000000e+00  -6.4208583823908794e-01 2.0469613165795797e-03 0.0000000000000000e+00  -6.5068834846117263e-01 2.2291941959186891e-03 0.0000000000000000e+00  -6.6014529216224405e-01 2.4229568911240040e-03 0.0000000000000000e+00  -6.7051344441834171e-01 2.6294811526624694e-03 0.0000000000000000e+00  -6.8185400319467893e-01 2.8501336440681039e-03 0.0000000000000000e+00  -6.9423308367706560e-01 3.0864393251102606e-03 0.0000000000000000e+00  -7.0772230125655355e-01 3.3401098067654335e-03 0.0000000000000000e+00  -7.2239946241344033e-01 3.6130779904773157e-03 0.0000000000000000e+00  -7.3834938789466209e-01 3.9075407090919945e-03 0.0000000000000000e+00  -7.5566489934485193e-01 4.2260116391231338e-03 0.0000000000000000e+00  -7.7444800953063708e-01 4.5713875160741223e-03 0.0000000000000000e+00  -7.9481136834206390e-01 4.9470317447756701e-03 0.0000000000000000e+00  -8.1688003309537838e-01 5.3568809978659692e-03 0.0000000000000000e+00  -8.4079365410645901e-01 5.8055825456581004e-03 0.0000000000000000e+00  -8.6670919775227240e-01 6.2986731915375344e-03 0.0000000000000000e+00  -8.9480437337785135e-01 6.8428153246067403e-03 0.0000000000000000e+00  -9.2528199378608900e-01 7.4461125965303689e-03 0.0000000000000000e+00  -9.5837559158200081e-01 8.1185385056462833e-03 0.0000000000000000e+00  -9.9435675174342963e-01 8.8725281510245464e-03 0.0000000000000000e+00  -1.0335448300043057e+00 9.7238108677129877e-03 0.0000000000000000e+00  -1.0763200569169429e+00 1.0692607170743402e-02 0.0000000000000000e+00  -1.1231415403290665e+00 1.1805391801818171e-02 0.0000000000000000e+00  -1.1745725937776634e+00 1.3097566438998150e-02 0.0000000000000000e+00  -1.2313171105079408e+00 1.4617645577330156e-02 0.0000000000000000e+00  -1.2942741207638675e+00 1.6434081507071461e-02 0.0000000000000000e+00  -1.3646196556036250e+00 1.8647076305956585e-02 0.0000000000000000e+00  -1.4439467016407355e+00 2.1409788437159669e-02 0.0000000000000000e+00  -1.5344667028422003e+00 2.4972221782230502e-02 0.0000000000000000e+00  -1.6395516122473615e+00 2.9794575721537150e-02 0.0000000000000000e+00  -1.7638915728322879e+00 3.6719973099327480e-02 0.0000000000000000e+00  -1.9188437886328951e+00 4.8594462481710746e-02 0.0000000000000000e+00  -2.1118305153739536e+00 7.2235271042470989e-02 0.0000000000000000e+00  -2.4201897014774167e+00 1.3587499837332828e-01 0.0000000000000000e+00  -2.9298705431462473e+00 4.5901731122634259e-01 0.0000000000000000e+00  -3.7518209614220086e+00 1.3367957833914788e+00 0.0000000000000000e+00  -5.8644519972170783e-01 7.5017575180854489e-06 0.0000000000000000e+00  -5.8672450163926271e-01 3.6084433860376393e-04 0.0000000000000000e+00  -5.8719354916172373e-01 6.9637884123476045e-04 0.0000000000000000e+00  -5.8803561149745809e-01 1.0423825539975608e-03 0.0000000000000000e+00  -5.8924202015322868e-01 1.3910885339084196e-03 0.0000000000000000e+00  -5.9083633025487381e-01 1.7462340103565485e-03 0.0000000000000000e+00  -5.9284072332720927e-01 2.1092440953873097e-03 0.0000000000000000e+00  -5.9527930525402606e-01 2.4818544903526750e-03 0.0000000000000000e+00  -5.9817818066324835e-01 2.8658540071853627e-03 0.0000000000000000e+00  -6.0156543949697028e-01 3.2631050307921497e-03 0.0000000000000000e+00  -6.0547126429831066e-01 3.6755683393765669e-03 0.0000000000000000e+00  -6.0992803236161264e-01 4.1053183115652234e-03 0.0000000000000000e+00  -6.1497043897591075e-01 4.5545620401831527e-03 0.0000000000000000e+00  -6.2063564154550122e-01 5.0256603472752090e-03 0.0000000000000000e+00  -6.2696342717045783e-01 5.5211516618378156e-03 0.0000000000000000e+00  -6.3399640721182748e-01 6.0437794629641141e-03 0.0000000000000000e+00  -6.4178024301147196e-01 6.5965241010148452e-03 0.0000000000000000e+00  -6.5036390791108922e-01 7.1826400022863600e-03 0.0000000000000000e+00  -6.5979999187907101e-01 7.8056994994288569e-03 0.0000000000000000e+00  -6.7014505650480050e-01 8.4696448449909020e-03 0.0000000000000000e+00  -6.8146004994662090e-01 9.1788503780381638e-03 0.0000000000000000e+00  -6.9381079373250820e-01 9.9381973554626083e-03 0.0000000000000000e+00  -7.0726855626720064e-01 1.0753164677378690e-02 0.0000000000000000e+00  -7.2191073170493048e-01 1.1629939693781692e-02 0.0000000000000000e+00  -7.3782164778782067e-01 1.2575554570261585e-02 0.0000000000000000e+00  -7.5509353272331881e-01 1.3598055447437109e-02 0.0000000000000000e+00  -7.7382767973755906e-01 1.4706714047568587e-02 0.0000000000000000e+00  -7.9413585938261588e-01 1.5912294750522603e-02 0.0000000000000000e+00  -8.1614204513239763e-01 1.7227394916362472e-02 0.0000000000000000e+00  -8.3998453892924629e-01 1.8666883037367257e-02 0.0000000000000000e+00  -8.6581861259359194e-01 2.0248469192210839e-02 0.0000000000000000e+00  -8.9381982206604360e-01 2.1993456889390074e-02 0.0000000000000000e+00  -9.2418820995909989e-01 2.3927747377882485e-02 0.0000000000000000e+00  -9.5715369662093086e-01 2.6083201263234289e-02 0.0000000000000000e+00  -9.9298308492632104e-01 2.8499515253346933e-02 0.0000000000000000e+00  -1.0319892916982691e+00 3.1226857088325507e-02 0.0000000000000000e+00  -1.0745437082693949e+00 3.4329642608354048e-02 0.0000000000000000e+00  -1.1210930437647204e+00 3.7892079237544819e-02 0.0000000000000000e+00  -1.1721827520448822e+00 4.2026524619543731e-02 0.0000000000000000e+00  -1.2284903101556652e+00 4.6886487706751717e-02 0.0000000000000000e+00  -1.2908739377020262e+00 5.2687614173367391e-02 0.0000000000000000e+00  -1.3604451353294746e+00 5.9742990820141104e-02 0.0000000000000000e+00  -1.4386839061110985e+00 6.8525741541769283e-02 0.0000000000000000e+00  -1.5276153950626390e+00 7.9787927497897634e-02 0.0000000000000000e+00  -1.6301319322947589e+00 9.4791476007695469e-02 0.0000000000000000e+00  -1.7504666170270378e+00 1.1585576590424393e-01 0.0000000000000000e+00  -1.8953632265986695e+00 1.4756021540095798e-01 0.0000000000000000e+00  -2.0729141096648491e+00 1.9895677801915704e-01 0.0000000000000000e+00  -2.3118991247265641e+00 2.9845030214475543e-01 0.0000000000000000e+00  -2.5276229917158273e+00 4.7011643794843855e-01 0.0000000000000000e+00  -3.0150156732700131e+00 8.6712446065731807e-01 0.0000000000000000e+00  -5.8577937266601099e-01 -1.0107327791879207e-06 0.0000000000000000e+00  -5.8619262100823455e-01 7.3594283673575854e-04 0.0000000000000000e+00  -5.8663119827585419e-01 1.4830650142413629e-03 0.0000000000000000e+00  -5.8747365499567317e-01 2.2374578425248971e-03 0.0000000000000000e+00  -5.8867007869737453e-01 3.0003857183813392e-03 0.0000000000000000e+00  -5.9025327165811281e-01 3.7772090042459123e-03 0.0000000000000000e+00  -5.9224355594256262e-01 4.5709620928685831e-03 0.0000000000000000e+00  -5.9466522196606442e-01 5.3855151364428618e-03 0.0000000000000000e+00  -5.9754423268713186e-01 6.2247276592355674e-03 0.0000000000000000e+00  -6.0090853442412628e-01 7.0926553719012362e-03 0.0000000000000000e+00  -6.0478814135958825e-01 7.9935617643007821e-03 0.0000000000000000e+00  -6.0921523247553333e-01 8.9319558488376860e-03 0.0000000000000000e+00  -6.1422427318117667e-01 9.9126328384732971e-03 0.0000000000000000e+00  -6.1985215506136582e-01 1.0940719108121102e-02 0.0000000000000000e+00  -6.2613835837622689e-01 1.2021723453193271e-02 0.0000000000000000e+00  -6.3312514032327127e-01 1.3161595898565687e-02 0.0000000000000000e+00  -6.4085775301474635e-01 1.4366795817611255e-02 0.0000000000000000e+00  -6.4938469598848481e-01 1.5644371469715604e-02 0.0000000000000000e+00  -6.5875800912408244e-01 1.7002053569528885e-02 0.0000000000000000e+00  -6.6903361315738030e-01 1.8448366158963423e-02 0.0000000000000000e+00  -6.8027170663576808e-01 1.9992758909393761e-02 0.0000000000000000e+00  -6.9253723023634950e-01 2.1645766105597129e-02 0.0000000000000000e+00  -7.0590041200269216e-01 2.3419199044181490e-02 0.0000000000000000e+00  -7.2043741042467868e-01 2.5326380551445968e-02 0.0000000000000000e+00  -7.3623107661644283e-01 2.7382432970395828e-02 0.0000000000000000e+00  -7.5337186246669274e-01 2.9604634553239705e-02 0.0000000000000000e+00  -7.7195890898062369e-01 3.2012864106465824e-02 0.0000000000000000e+00  -7.9210135872163079e-01 3.4630160540778977e-02 0.0000000000000000e+00  -8.1391994915202825e-01 3.7483433521579283e-02 0.0000000000000000e+00  -8.3754896099594323e-01 4.0604374979967772e-02 0.0000000000000000e+00  -8.6313861925712643e-01 4.4030640797934270e-02 0.0000000000000000e+00  -8.9085807676689688e-01 4.7807400610705139e-02 0.0000000000000000e+00  -9.2089915484640061e-01 5.1989396289883867e-02 0.0000000000000000e+00  -9.5348107831560380e-01 5.6643714289005609e-02 0.0000000000000000e+00  -9.8885653099712389e-01 6.1853576958879115e-02 0.0000000000000000e+00  -1.0273194847794711e+00 6.7723615842386883e-02 0.0000000000000000e+00  -1.0692154405400096e+00 7.4387345459322921e-02 0.0000000000000000e+00  -1.1149549817174031e+00 8.2017980292130727e-02 0.0000000000000000e+00  -1.1650319502010558e+00 9.0844462092746769e-02 0.0000000000000000e+00  -1.2200480350412040e+00 1.0117584041206773e-01 0.0000000000000000e+00  -1.2807466408322550e+00 1.1343946768795637e-01 0.0000000000000000e+00  -1.3480585851481719e+00 1.2824281528950568e-01 0.0000000000000000e+00  -1.4231680399675510e+00 1.4647733038659086e-01 0.0000000000000000e+00  -1.5075838741399861e+00 1.6949857943819216e-01 0.0000000000000000e+00  -1.6032842496721302e+00 1.9945521387853793e-01 0.0000000000000000e+00  -1.7125827175155011e+00 2.3989758389892943e-01 0.0000000000000000e+00  -1.8387147039946994e+00 2.9687661015095096e-01 0.0000000000000000e+00  -1.9820971046668006e+00 3.8141691269644862e-01 0.0000000000000000e+00  -2.1465952287380516e+00 5.1122949824440556e-01 0.0000000000000000e+00  -2.2841556365742712e+00 7.1411046599006234e-01 0.0000000000000000e+00  -2.4907387773491156e+00 1.0508183454757671e+00 0.0000000000000000e+00  -5.8475698674232124e-01 3.3618871135686168e-07 0.0000000000000000e+00  -5.8530296110596391e-01 1.1007606638535365e-03 0.0000000000000000e+00  -5.8569812853379233e-01 2.2048018461699125e-03 0.0000000000000000e+00  -5.8653932963020561e-01 3.3172134462593501e-03 0.0000000000000000e+00  -5.8771926526536533e-01 4.4445975733444915e-03 0.0000000000000000e+00  -5.8928409054231279e-01 5.5920104548399996e-03 0.0000000000000000e+00  -5.9125092122870848e-01 6.7645522440132133e-03 0.0000000000000000e+00  -5.9364455600267885e-01 7.9678363138070505e-03 0.0000000000000000e+00  -5.9649063427251015e-01 9.2075303547273536e-03 0.0000000000000000e+00  -5.9981688442530856e-01 1.0489610155341654e-02 0.0000000000000000e+00  -6.0365303887403954e-01 1.1820349405729517e-02 0.0000000000000000e+00  -6.0803095017811992e-01 1.3206383958795954e-02 0.0000000000000000e+00  -6.1298470548784556e-01 1.4654768190346177e-02 0.0000000000000000e+00  -6.1855075939339865e-01 1.6173040424079257e-02 0.0000000000000000e+00  -6.2476808819110263e-01 1.7769297155840039e-02 0.0000000000000000e+00  -6.3167836789766840e-01 1.9452278165397213e-02 0.0000000000000000e+00  -6.3932617970991856e-01 2.1231464988845331e-02 0.0000000000000000e+00  -6.4775924716861344e-01 2.3117195716508984e-02 0.0000000000000000e+00  -6.5702871020978149e-01 2.5120799807758266e-02 0.0000000000000000e+00  -6.6718944239943179e-01 2.7254757529152494e-02 0.0000000000000000e+00  -6.7830041902389571e-01 2.9532889812544746e-02 0.0000000000000000e+00  -6.9042514542374167e-01 3.1970585883017627e-02 0.0000000000000000e+00  -7.0363215710155491e-01 3.4585078043639854e-02 0.0000000000000000e+00  -7.1799560582894617e-01 3.7395775699743089e-02 0.0000000000000000e+00  -7.3359594938197770e-01 4.0424674301382080e-02 0.0000000000000000e+00  -7.5052076685665348e-01 4.3696859723125710e-02 0.0000000000000000e+00  -7.6886572703331135e-01 4.7241135180686337e-02 0.0000000000000000e+00  -7.8873574433291604e-01 5.1090806823526819e-02 0.0000000000000000e+00  -8.1024636601635847e-01 5.5284676698437424e-02 0.0000000000000000e+00  -8.3352544604674927e-01 5.9868309428618413e-02 0.0000000000000000e+00  -8.5871517627105765e-01 6.4895664077767201e-02 0.0000000000000000e+00  -8.8597456529718521e-01 7.0431218919576488e-02 0.0000000000000000e+00  -9.1548248087598505e-01 7.6552769892922937e-02 0.0000000000000000e+00  -9.4744140403469579e-01 8.3355162373990987e-02 0.0000000000000000e+00  -9.8208208381826090e-01 9.0955334974408095e-02 0.0000000000000000e+00  -1.0196693296764423e+00 9.9499236957703185e-02 0.0000000000000000e+00  -1.0605092320798370e+00 1.0917146670314638e-01 0.0000000000000000e+00  -1.1049581411430349e+00 1.2020893335026711e-01 0.0000000000000000e+00  -1.1534337459454245e+00 1.3292057992124939e-01 0.0000000000000000e+00  -1.2064283935043625e+00 1.4771641610809649e-01 0.0000000000000000e+00  -1.2645245165232055e+00 1.6515112228530460e-01 0.0000000000000000e+00  -1.3284096719572109e+00 1.8599085222003231e-01 0.0000000000000000e+00  -1.3988886462346704e+00 2.1131735881146058e-01 0.0000000000000000e+00  -1.4768666275058440e+00 2.4269234346078655e-01 0.0000000000000000e+00  -1.5633129206379464e+00 2.8241709616609401e-01 0.0000000000000000e+00  -1.6589245478761094e+00 3.3392370910638486e-01 0.0000000000000000e+00  -1.7641076150689414e+00 4.0236382829140732e-01 0.0000000000000000e+00  -1.8753109950049502e+00 4.9504312534220823e-01 0.0000000000000000e+00  -1.9920903308582665e+00 6.2151477126599408e-01 0.0000000000000000e+00  -2.0710779751618431e+00 7.9109071075486814e-01 0.0000000000000000e+00  -2.1954916393750699e+00 9.9062719951227918e-01 0.0000000000000000e+00  -5.8337414080912153e-01 3.4556525593513854e-07 0.0000000000000000e+00  -5.8404824932880495e-01 1.4592487479890772e-03 0.0000000000000000e+00  -5.8439958777724643e-01 2.9252101468808553e-03 0.0000000000000000e+00  -5.8523655433245159e-01 4.4044245617053729e-03 0.0000000000000000e+00  -5.8639374719149251e-01 5.9033826815625690e-03 0.0000000000000000e+00  -5.8793296333585365e-01 7.4286769164116882e-03 0.0000000000000000e+00  -5.8986712688563880e-01 8.9874251375612439e-03 0.0000000000000000e+00  -5.9222177578961255e-01 1.0586894802797888e-02 0.0000000000000000e+00  -5.9502204878176179e-01 1.2234619662626843e-02 0.0000000000000000e+00  -5.9829539248504870e-01 1.3938503582153960e-02 0.0000000000000000e+00  -6.0207114386102278e-01 1.5706844980300061e-02 0.0000000000000000e+00  -6.0638070721498816e-01 1.7548418404550754e-02 0.0000000000000000e+00  -6.1125764928548842e-01 1.9472545680752809e-02 0.0000000000000000e+00  -6.1673782456554993e-01 2.1489181193777313e-02 0.0000000000000000e+00  -6.2285951814982099e-01 2.3609007658640557e-02 0.0000000000000000e+00  -6.2966360998725479e-01 2.5843545966780665e-02 0.0000000000000000e+00  -6.3719376356734669e-01 2.8205281985955774e-02 0.0000000000000000e+00  -6.4549664257344908e-01 3.0707814036904410e-02 0.0000000000000000e+00  -6.5462215979520344e-01 3.3366025639178752e-02 0.0000000000000000e+00  -6.6462376343072316e-01 3.6196289237242961e-02 0.0000000000000000e+00  -6.7555876694502426e-01 3.9216708064801438e-02 0.0000000000000000e+00  -6.8748872990796905e-01 4.2447405176585642e-02 0.0000000000000000e+00  -7.0047989876572803e-01 4.5910871116605870e-02 0.0000000000000000e+00  -7.1460371836143266e-01 4.9632384892890020e-02 0.0000000000000000e+00  -7.2993742728849598e-01 5.3640527162810425e-02 0.0000000000000000e+00  -7.4656475291045854e-01 5.7967810176620581e-02 0.0000000000000000e+00  -7.6457672520680631e-01 6.2651456616147849e-02 0.0000000000000000e+00  -7.8407263258496929e-01 6.7734369762047900e-02 0.0000000000000000e+00  -8.0516114749830703e-01 7.3266351527712645e-02 0.0000000000000000e+00  -8.2796165511394804e-01 7.9305644408346559e-02 0.0000000000000000e+00  -8.5260582421704711e-01 8.5920900663452190e-02 0.0000000000000000e+00  -8.7923946550956233e-01 9.3193720568583785e-02 0.0000000000000000e+00  -9.0802472729285544e-01 1.0122195656677840e-01 0.0000000000000000e+00  -9.3914267967807641e-01 1.1012405951956404e-01 0.0000000000000000e+00  -9.7279633094579221e-01 1.2004485900670847e-01 0.0000000000000000e+00  -1.0092140928798341e+00 1.3116334006119471e-01 0.0000000000000000e+00  -1.0486536472765788e+00 1.4370323170029667e-01 0.0000000000000000e+00  -1.0914060175446783e+00 1.5794759993395685e-01 0.0000000000000000e+00  -1.1377993626177823e+00 1.7425920046314325e-01 0.0000000000000000e+00  -1.1882013373414928e+00 1.9310917566748742e-01 0.0000000000000000e+00  -1.2430178581810991e+00 2.1511786980626529e-01 0.0000000000000000e+00  -1.3026827439593336e+00 2.4111311139084066e-01 0.0000000000000000e+00  -1.3676314114319312e+00 2.7221308538544675e-01 0.0000000000000000e+00  -1.4382282566083990e+00 3.0994165160683235e-01 0.0000000000000000e+00  -1.5146552616516744e+00 3.5637999923387342e-01 0.0000000000000000e+00  -1.5965201235320643e+00 4.1434137004015992e-01 0.0000000000000000e+00  -1.6827638181100779e+00 4.8749088461342166e-01 0.0000000000000000e+00  -1.7689592777883330e+00 5.8018181301108518e-01 0.0000000000000000e+00  -1.8532674662812660e+00 6.9670576981603149e-01 0.0000000000000000e+00  -1.9047613520505564e+00 8.3732526133585705e-01 0.0000000000000000e+00  -1.9936477965500647e+00 9.9971867667209036e-01 0.0000000000000000e+00  -5.8163740829960930e-01 4.0097921651196571e-07 0.0000000000000000e+00  -5.8243710645461177e-01 1.8119268514003731e-03 0.0000000000000000e+00  -5.8274276588792107e-01 3.6320358332371087e-03 0.0000000000000000e+00  -5.8357086482842724e-01 5.4679859462048600e-03 0.0000000000000000e+00  -5.8469969905804553e-01 7.3281999017318009e-03 0.0000000000000000e+00  -5.8620614160671103e-01 9.2211522529040101e-03 0.0000000000000000e+00  -5.8809866421002199e-01 1.1155533392759535e-02 0.0000000000000000e+00  -5.9040363136913698e-01 1.3140288825367909e-02 0.0000000000000000e+00  -5.9314554353068549e-01 1.5184746984029301e-02 0.0000000000000000e+00  -5.9635150038734586e-01 1.7298654988697617e-02 0.0000000000000000e+00  -6.0005033576533473e-01 1.9492253478084344e-02 0.0000000000000000e+00  -6.0427289204577583e-01 2.1776361729942937e-02 0.0000000000000000e+00  -6.0905208240982989e-01 2.4162465218451223e-02 0.0000000000000000e+00  -6.1442300958177909e-01 2.6662817965575403e-02 0.0000000000000000e+00  -6.2042309404241014e-01 2.9290557191335446e-02 0.0000000000000000e+00  -6.2709222167114187e-01 3.2059834680910192e-02 0.0000000000000000e+00  -6.3447291208438039e-01 3.4985967949219612e-02 0.0000000000000000e+00  -6.4261051052315954e-01 3.8085615533232829e-02 0.0000000000000000e+00  -6.5155340651948590e-01 4.1376981636405602e-02 0.0000000000000000e+00  -6.6135328312561836e-01 4.4880056610548370e-02 0.0000000000000000e+00  -6.7206540114347790e-01 4.8616901354404732e-02 0.0000000000000000e+00  -6.8374892354128636e-01 5.2611985754779982e-02 0.0000000000000000e+00  -6.9646728610094366e-01 5.6892593938194840e-02 0.0000000000000000e+00  -7.1028862129947901e-01 6.1489312532839631e-02 0.0000000000000000e+00  -7.2528624347646908e-01 6.6436622626423164e-02 0.0000000000000000e+00  -7.41539