<?xml version="1.0"?>
<VTKFile type="UnstructuredGrid"  version="0.1"  >
<UnstructuredGrid>
<Piece  NumberOfPoints="2601" NumberOfCells="5000">
<Points>
<DataArray  type="Float64"  NumberOfComponents="3"  format="ascii">0 0 0  0.02 0 0  0.04 0 0  0.06 0 0  0.08 0 0  0.1 0 0  0.12 0 0  0.14 0 0  0.16 0 0  0.18 0 0  0.2 0 0  0.22 0 0  0.24 0 0  0.26 0 0  0.28 0 0  0.3 0 0  0.32 0 0  0.34 0 0  0.36 0 0  0.38 0 0  0.4 0 0  0.42 0 0  0.44 0 0  0.46 0 0  0.48 0 0  0.5 0 0  0.52 0 0  0.54 0 0  0.5600000000000001 0 0  0.58 0 0  0.6 0 0  0.62 0 0  0.64 0 0  0.66 0 0  0.68 0 0  0.7 0 0  0.72 0 0  0.74 0 0  0.76 0 0  0.78 0 0  0.8 0 0  0.82 0 0  0.84 0 0  0.86 0 0  0.88 0 0  0.9 0 0  0.92 0 0  0.9399999999999999 0 0  0.96 0 0  0.98 0 0  1 0 0  0 0.02 0  0.02 0.02 0  0.04 0.02 0  0.06 0.02 0  0.08 0.02 0  0.1 0.02 0  0.12 0.02 0  0.14 0.02 0  0.16 0.02 0  0.18 0.02 0  0.2 0.02 0  0.22 0.02 0  0.24 0.02 0  0.26 0.02 0  0.28 0.02 0  0.3 0.02 0  0.32 0.02 0  0.34 0.02 0  0.36 0.02 0  0.38 0.02 0  0.4 0.02 0  0.42 0.02 0  0.44 0.02 0  0.46 0.02 0  0.48 0.02 0  0.5 0.02 0  0.52 0.02 0  0.54 0.02 0  0.5600000000000001 0.02 0  0.58 0.02 0  0.6 0.02 0  0.62 0.02 0  0.64 0.02 0  0.66 0.02 0  0.68 0.02 0  0.7 0.02 0  0.72 0.02 0  0.74 0.02 0  0.76 0.02 0  0.78 0.02 0  0.8 0.02 0  0.82 0.02 0  0.84 0.02 0  0.86 0.02 0  0.88 0.02 0  0.9 0.02 0  0.92 0.02 0  0.9399999999999999 0.02 0  0.96 0.02 0  0.98 0.02 0  1 0.02 0  0 0.04 0  0.02 0.04 0  0.04 0.04 0  0.06 0.04 0  0.08 0.04 0  0.1 0.04 0  0.12 0.04 0  0.14 0.04 0  0.16 0.04 0  0.18 0.04 0  0.2 0.04 0  0.22 0.04 0  0.24 0.04 0  0.26 0.04 0  0.28 0.04 0  0.3 0.04 0  0.32 0.04 0  0.34 0.04 0  0.36 0.04 0  0.38 0.04 0  0.4 0.04 0  0.42 0.04 0  0.44 0.04 0  0.46 0.04 0  0.48 0.04 0  0.5 0.04 0  0.52 0.04 0  0.54 0.04 0  0.5600000000000001 0.04 0  0.58 0.04 0  0.6 0.04 0  0.62 0.04 0  0.64 0.04 0  0.66 0.04 0  0.68 0.04 0  0.7 0.04 0  0.72 0.04 0  0.74 0.04 0  0.76 0.04 0  0.78 0.04 0  0.8 0.04 0  0.82 0.04 0  0.84 0.04 0  0.86 0.04 0  0.88 0.04 0  0.9 0.04 0  0.92 0.04 0  0.9399999999999999 0.04 0  0.96 0.04 0  0.98 0.04 0  1 0.04 0  0 0.06 0  0.02 0.06 0  0.04 0.06 0  0.06 0.06 0  0.08 0.06 0  0.1 0.06 0  0.12 0.06 0  0.14 0.06 0  0.16 0.06 0  0.18 0.06 0  0.2 0.06 0  0.22 0.06 0  0.24 0.06 0  0.26 0.06 0  0.28 0.06 0  0.3 0.06 0  0.32 0.06 0  0.34 0.06 0  0.36 0.06 0  0.38 0.06 0  0.4 0.06 0  0.42 0.06 0  0.44 0.06 0  0.46 0.06 0  0.48 0.06 0  0.5 0.06 0  0.52 0.06 0  0.54 0.06 0  0.5600000000000001 0.06 0  0.58 0.06 0  0.6 0.06 0  0.62 0.06 0  0.64 0.06 0  0.66 0.06 0  0.68 0.06 0  0.7 0.06 0  0.72 0.06 0  0.74 0.06 0  0.76 0.06 0  0.78 0.06 0  0.8 0.06 0  0.82 0.06 0  0.84 0.06 0  0.86 0.06 0  0.88 0.06 0  0.9 0.06 0  0.92 0.06 0  0.9399999999999999 0.06 0  0.96 0.06 0  0.98 0.06 0  1 0.06 0  0 0.08 0  0.02 0.08 0  0.04 0.08 0  0.06 0.08 0  0.08 0.08 0  0.1 0.08 0  0.12 0.08 0  0.14 0.08 0  0.16 0.08 0  0.18 0.08 0  0.2 0.08 0  0.22 0.08 0  0.24 0.08 0  0.26 0.08 0  0.28 0.08 0  0.3 0.08 0  0.32 0.08 0  0.34 0.08 0  0.36 0.08 0  0.38 0.08 0  0.4 0.08 0  0.42 0.08 0  0.44 0.08 0  0.46 0.08 0  0.48 0.08 0  0.5 0.08 0  0.52 0.08 0  0.54 0.08 0  0.5600000000000001 0.08 0  0.58 0.08 0  0.6 0.08 0  0.62 0.08 0  0.64 0.08 0  0.66 0.08 0  0.68 0.08 0  0.7 0.08 0  0.72 0.08 0  0.74 0.08 0  0.76 0.08 0  0.78 0.08 0  0.8 0.08 0  0.82 0.08 0  0.84 0.08 0  0.86 0.08 0  0.88 0.08 0  0.9 0.08 0  0.92 0.08 0  0.9399999999999999 0.08 0  0.96 0.08 0  0.98 0.08 0  1 0.08 0  0 0.1 0  0.02 0.1 0  0.04 0.1 0  0.06 0.1 0  0.08 0.1 0  0.1 0.1 0  0.12 0.1 0  0.14 0.1 0  0.16 0.1 0  0.18 0.1 0  0.2 0.1 0  0.22 0.1 0  0.24 0.1 0  0.26 0.1 0  0.28 0.1 0  0.3 0.1 0  0.32 0.1 0  0.34 0.1 0  0.36 0.1 0  0.38 0.1 0  0.4 0.1 0  0.42 0.1 0  0.44 0.1 0  0.46 0.1 0  0.48 0.1 0  0.5 0.1 0  0.52 0.1 0  0.54 0.1 0  0.5600000000000001 0.1 0  0.58 0.1 0  0.6 0.1 0  0.62 0.1 0  0.64 0.1 0  0.66 0.1 0  0.68 0.1 0  0.7 0.1 0  0.72 0.1 0  0.74 0.1 0  0.76 0.1 0  0.78 0.1 0  0.8 0.1 0  0.82 0.1 0  0.84 0.1 0  0.86 0.1 0  0.88 0.1 0  0.9 0.1 0  0.92 0.1 0  0.9399999999999999 0.1 0  0.96 0.1 0  0.98 0.1 0  1 0.1 0  0 0.12 0  0.02 0.12 0  0.04 0.12 0  0.06 0.12 0  0.08 0.12 0  0.1 0.12 0  0.12 0.12 0  0.14 0.12 0  0.16 0.12 0  0.18 0.12 0  0.2 0.12 0  0.22 0.12 0  0.24 0.12 0  0.26 0.12 0  0.28 0.12 0  0.3 0.12 0  0.32 0.12 0  0.34 0.12 0  0.36 0.12 0  0.38 0.12 0  0.4 0.12 0  0.42 0.12 0  0.44 0.12 0  0.46 0.12 0  0.48 0.12 0  0.5 0.12 0  0.52 0.12 0  0.54 0.12 0  0.5600000000000001 0.12 0  0.58 0.12 0  0.6 0.12 0  0.62 0.12 0  0.64 0.12 0  0.66 0.12 0  0.68 0.12 0  0.7 0.12 0  0.72 0.12 0  0.74 0.12 0  0.76 0.12 0  0.78 0.12 0  0.8 0.12 0  0.82 0.12 0  0.84 0.12 0  0.86 0.12 0  0.88 0.12 0  0.9 0.12 0  0.92 0.12 0  0.9399999999999999 0.12 0  0.96 0.12 0  0.98 0.12 0  1 0.12 0  0 0.14 0  0.02 0.14 0  0.04 0.14 0  0.06 0.14 0  0.08 0.14 0  0.1 0.14 0  0.12 0.14 0  0.14 0.14 0  0.16 0.14 0  0.18 0.14 0  0.2 0.14 0  0.22 0.14 0  0.24 0.14 0  0.26 0.14 0  0.28 0.14 0  0.3 0.14 0  0.32 0.14 0  0.34 0.14 0  0.36 0.14 0  0.38 0.14 0  0.4 0.14 0  0.42 0.14 0  0.44 0.14 0  0.46 0.14 0  0.48 0.14 0  0.5 0.14 0  0.52 0.14 0  0.54 0.14 0  0.5600000000000001 0.14 0  0.58 0.14 0  0.6 0.14 0  0.62 0.14 0  0.64 0.14 0  0.66 0.14 0  0.68 0.14 0  0.7 0.14 0  0.72 0.14 0  0.74 0.14 0  0.76 0.14 0  0.78 0.14 0  0.8 0.14 0  0.82 0.14 0  0.84 0.14 0  0.86 0.14 0  0.88 0.14 0  0.9 0.14 0  0.92 0.14 0  0.9399999999999999 0.14 0  0.96 0.14 0  0.98 0.14 0  1 0.14 0  0 0.16 0  0.02 0.16 0  0.04 0.16 0  0.06 0.16 0  0.08 0.16 0  0.1 0.16 0  0.12 0.16 0  0.14 0.16 0  0.16 0.16 0  0.18 0.16 0  0.2 0.16 0  0.22 0.16 0  0.24 0.16 0  0.26 0.16 0  0.28 0.16 0  0.3 0.16 0  0.32 0.16 0  0.34 0.16 0  0.36 0.16 0  0.38 0.16 0  0.4 0.16 0  0.42 0.16 0  0.44 0.16 0  0.46 0.16 0  0.48 0.16 0  0.5 0.16 0  0.52 0.16 0  0.54 0.16 0  0.5600000000000001 0.16 0  0.58 0.16 0  0.6 0.16 0  0.62 0.16 0  0.64 0.16 0  0.66 0.16 0  0.68 0.16 0  0.7 0.16 0  0.72 0.16 0  0.74 0.16 0  0.76 0.16 0  0.78 0.16 0  0.8 0.16 0  0.82 0.16 0  0.84 0.16 0  0.86 0.16 0  0.88 0.16 0  0.9 0.16 0  0.92 0.16 0  0.9399999999999999 0.16 0  0.96 0.16 0  0.98 0.16 0  1 0.16 0  0 0.18 0  0.02 0.18 0  0.04 0.18 0  0.06 0.18 0  0.08 0.18 0  0.1 0.18 0  0.12 0.18 0  0.14 0.18 0  0.16 0.18 0  0.18 0.18 0  0.2 0.18 0  0.22 0.18 0  0.24 0.18 0  0.26 0.18 0  0.28 0.18 0  0.3 0.18 0  0.32 0.18 0  0.34 0.18 0  0.36 0.18 0  0.38 0.18 0  0.4 0.18 0  0.42 0.18 0  0.44 0.18 0  0.46 0.18 0  0.48 0.18 0  0.5 0.18 0  0.52 0.18 0  0.54 0.18 0  0.5600000000000001 0.18 0  0.58 0.18 0  0.6 0.18 0  0.62 0.18 0  0.64 0.18 0  0.66 0.18 0  0.68 0.18 0  0.7 0.18 0  0.72 0.18 0  0.74 0.18 0  0.76 0.18 0  0.78 0.18 0  0.8 0.18 0  0.82 0.18 0  0.84 0.18 0  0.86 0.18 0  0.88 0.18 0  0.9 0.18 0  0.92 0.18 0  0.9399999999999999 0.18 0  0.96 0.18 0  0.98 0.18 0  1 0.18 0  0 0.2 0  0.02 0.2 0  0.04 0.2 0  0.06 0.2 0  0.08 0.2 0  0.1 0.2 0  0.12 0.2 0  0.14 0.2 0  0.16 0.2 0  0.18 0.2 0  0.2 0.2 0  0.22 0.2 0  0.24 0.2 0  0.26 0.2 0  0.28 0.2 0  0.3 0.2 0  0.32 0.2 0  0.34 0.2 0  0.36 0.2 0  0.38 0.2 0  0.4 0.2 0  0.42 0.2 0  0.44 0.2 0  0.46 0.2 0  0.48 0.2 0  0.5 0.2 0  0.52 0.2 0  0.54 0.2 0  0.5600000000000001 0.2 0  0.58 0.2 0  0.6 0.2 0  0.62 0.2 0  0.64 0.2 0  0.66 0.2 0  0.68 0.2 0  0.7 0.2 0  0.72 0.2 0  0.74 0.2 0  0.76 0.2 0  0.78 0.2 0  0.8 0.2 0  0.82 0.2 0  0.84 0.2 0  0.86 0.2 0  0.88 0.2 0  0.9 0.2 0  0.92 0.2 0  0.9399999999999999 0.2 0  0.96 0.2 0  0.98 0.2 0  1 0.2 0  0 0.22 0  0.02 0.22 0  0.04 0.22 0  0.06 0.22 0  0.08 0.22 0  0.1 0.22 0  0.12 0.22 0  0.14 0.22 0  0.16 0.22 0  0.18 0.22 0  0.2 0.22 0  0.22 0.22 0  0.24 0.22 0  0.26 0.22 0  0.28 0.22 0  0.3 0.22 0  0.32 0.22 0  0.34 0.22 0  0.36 0.22 0  0.38 0.22 0  0.4 0.22 0  0.42 0.22 0  0.44 0.22 0  0.46 0.22 0  0.48 0.22 0  0.5 0.22 0  0.52 0.22 0  0.54 0.22 0  0.5600000000000001 0.22 0  0.58 0.22 0  0.6 0.22 0  0.62 0.22 0  0.64 0.22 0  0.66 0.22 0  0.68 0.22 0  0.7 0.22 0  0.72 0.22 0  0.74 0.22 0  0.76 0.22 0  0.78 0.22 0  0.8 0.22 0  0.82 0.22 0  0.84 0.22 0  0.86 0.22 0  0.88 0.22 0  0.9 0.22 0  0.92 0.22 0  0.9399999999999999 0.22 0  0.96 0.22 0  0.98 0.22 0  1 0.22 0  0 0.24 0  0.02 0.24 0  0.04 0.24 0  0.06 0.24 0  0.08 0.24 0  0.1 0.24 0  0.12 0.24 0  0.14 0.24 0  0.16 0.24 0  0.18 0.24 0  0.2 0.24 0  0.22 0.24 0  0.24 0.24 0  0.26 0.24 0  0.28 0.24 0  0.3 0.24 0  0.32 0.24 0  0.34 0.24 0  0.36 0.24 0  0.38 0.24 0  0.4 0.24 0  0.42 0.24 0  0.44 0.24 0  0.46 0.24 0  0.48 0.24 0  0.5 0.24 0  0.52 0.24 0  0.54 0.24 0  0.5600000000000001 0.24 0  0.58 0.24 0  0.6 0.24 0  0.62 0.24 0  0.64 0.24 0  0.66 0.24 0  0.68 0.24 0  0.7 0.24 0  0.72 0.24 0  0.74 0.24 0  0.76 0.24 0  0.78 0.24 0  0.8 0.24 0  0.82 0.24 0  0.84 0.24 0  0.86 0.24 0  0.88 0.24 0  0.9 0.24 0  0.92 0.24 0  0.9399999999999999 0.24 0  0.96 0.24 0  0.98 0.24 0  1 0.24 0  0 0.26 0  0.02 0.26 0  0.04 0.26 0  0.06 0.26 0  0.08 0.26 0  0.1 0.26 0  0.12 0.26 0  0.14 0.26 0  0.16 0.26 0  0.18 0.26 0  0.2 0.26 0  0.22 0.26 0  0.24 0.26 0  0.26 0.26 0  0.28 0.26 0  0.3 0.26 0  0.32 0.26 0  0.34 0.26 0  0.36 0.26 0  0.38 0.26 0  0.4 0.26 0  0.42 0.26 0  0.44 0.26 0  0.46 0.26 0  0.48 0.26 0  0.5 0.26 0  0.52 0.26 0  0.54 0.26 0  0.5600000000000001 0.26 0  0.58 0.26 0  0.6 0.26 0  0.62 0.26 0  0.64 0.26 0  0.66 0.26 0  0.68 0.26 0  0.7 0.26 0  0.72 0.26 0  0.74 0.26 0  0.76 0.26 0  0.78 0.26 0  0.8 0.26 0  0.82 0.26 0  0.84 0.26 0  0.86 0.26 0  0.88 0.26 0  0.9 0.26 0  0.92 0.26 0  0.9399999999999999 0.26 0  0.96 0.26 0  0.98 0.26 0  1 0.26 0  0 0.28 0  0.02 0.28 0  0.04 0.28 0  0.06 0.28 0  0.08 0.28 0  0.1 0.28 0  0.12 0.28 0  0.14 0.28 0  0.16 0.28 0  0.18 0.28 0  0.2 0.28 0  0.22 0.28 0  0.24 0.28 0  0.26 0.28 0  0.28 0.28 0  0.3 0.28 0  0.32 0.28 0  0.34 0.28 0  0.36 0.28 0  0.38 0.28 0  0.4 0.28 0  0.42 0.28 0  0.44 0.28 0  0.46 0.28 0  0.48 0.28 0  0.5 0.28 0  0.52 0.28 0  0.54 0.28 0  0.5600000000000001 0.28 0  0.58 0.28 0  0.6 0.28 0  0.62 0.28 0  0.64 0.28 0  0.66 0.28 0  0.68 0.28 0  0.7 0.28 0  0.72 0.28 0  0.74 0.28 0  0.76 0.28 0  0.78 0.28 0  0.8 0.28 0  0.82 0.28 0  0.84 0.28 0  0.86 0.28
[...]
<PointData  Vectors="f_42"> 
<DataArray  type="Float64"  Name="f_42"  NumberOfComponents="3" format="ascii">-3.0387989238476112e+00 -2.1966464328081564e-04 0.0000000000000000e+00  -2.8921130642921735e+00 -7.2921118992772557e-04 0.0000000000000000e+00  -2.7077577745834200e+00 -6.9048088017822765e-04 0.0000000000000000e+00  -2.5363376134909430e+00 -6.3804110151777357e-04 0.0000000000000000e+00  -2.3757450097354016e+00 -5.5928122591432968e-04 0.0000000000000000e+00  -2.2245814479081525e+00 -4.7452724964498180e-04 0.0000000000000000e+00  -2.0824932371969505e+00 -3.8710046793543007e-04 0.0000000000000000e+00  -1.9488985528580074e+00 -2.9802847728811624e-04 0.0000000000000000e+00  -1.8232796705638605e+00 -2.0753401567693175e-04 0.0000000000000000e+00  -1.7051499562584918e+00 -1.1540210929104449e-04 0.0000000000000000e+00  -1.5940524531420677e+00 -2.1221434663295488e-05 0.0000000000000000e+00  -1.4895597520864361e+00 7.5544988177165035e-05 0.0000000000000000e+00  -1.3912723963253841e+00 1.7552645376369666e-04 0.0000000000000000e+00  -1.2988176379747962e+00 2.7943163249146070e-04 0.0000000000000000e+00  -1.2118482405278521e+00 3.8804608330362606e-04 0.0000000000000000e+00  -1.1300413847046704e+00 5.0223576414695911e-04 0.0000000000000000e+00  -1.0530976922969055e+00 6.2295472108554240e-04 0.0000000000000000e+00  -9.8074037520842561e-01 7.5125616984185657e-04 0.0000000000000000e+00  -9.1271451797807823e-01 8.8830677775680324e-04 0.0000000000000000e+00  -8.4878650222141439e-01 1.0354043178900537e-03 0.0000000000000000e+00  -7.8874358314247528e-01 1.1939991418503249e-03 0.0000000000000000e+00  -7.3239363086958487e-01 1.3657201734832067e-03 0.0000000000000000e+00  -6.7956505292389613e-01 1.5524064044038091e-03 0.0000000000000000e+00  -6.3010691880030656e-01 1.7561452106308532e-03 0.0000000000000000e+00  -5.8388931370654851e-01 1.9793192431003166e-03 0.0000000000000000e+00  -5.4080395640054779e-01 2.2246642231713285e-03 0.0000000000000000e+00  -5.0076512641123805e-01 2.4953407600414560e-03 0.0000000000000000e+00  -4.6371095962740799e-01 2.7950243966690142e-03 0.0000000000000000e+00  -4.2960518959628358e-01 3.1280196232748325e-03 0.0000000000000000e+00  -3.9843943680145411e-01 3.4994057887861069e-03 0.0000000000000000e+00  -3.7023618253093471e-01 3.9152260230308072e-03 0.0000000000000000e+00  -3.4505261198495168e-01 4.3827349867698560e-03 0.0000000000000000e+00  -3.2298557966231262e-01 4.9107283518205055e-03 0.0000000000000000e+00  -3.0417804903630413e-01 5.5099878088458263e-03 0.0000000000000000e+00  -2.8882750538727919e-01 6.1938925437968889e-03 0.0000000000000000e+00  -2.7719706071654154e-01 6.9792757996904519e-03 0.0000000000000000e+00  -2.6963031811610050e-01 7.8876511727572138e-03 0.0000000000000000e+00  -2.6657158927031477e-01 8.9470121147855117e-03 0.0000000000000000e+00  -2.6859403583610136e-01 1.0194550512047382e-02 0.0000000000000000e+00  -2.7643953442175806e-01 1.1680901168170854e-02 0.0000000000000000e+00  -2.9107794206724474e-01 1.3477042529337822e-02 0.0000000000000000e+00  -3.1379415842822084e-01 1.5686208809044248e-02 0.0000000000000000e+00  -3.4633806611351808e-01 1.8465227515679115e-02 0.0000000000000000e+00  -3.9112845366831445e-01 2.2068591746636342e-02 0.0000000000000000e+00  -4.5183708722508376e-01 2.6962001169313701e-02 0.0000000000000000e+00  -5.3347273961724173e-01 3.3995664857804170e-02 0.0000000000000000e+00  -6.4808584045752393e-01 4.6023369347982623e-02 0.0000000000000000e+00  -8.0312598445355488e-01 6.9879296840681657e-02 0.0000000000000000e+00  -1.0790732579395497e+00 1.3382143716631428e-01 0.0000000000000000e+00  -1.5564269271953988e+00 4.5748766180936923e-01 0.0000000000000000e+00  -2.3696952915310021e+00 1.3375017834743290e+00 0.0000000000000000e+00  -3.0230832794542613e+00 4.5620569838629700e-05 0.0000000000000000e+00  -2.9046530990608579e+00 -2.5773592447874858e-04 0.0000000000000000e+00  -2.7048725870624688e+00 -3.2644047862746139e-04 0.0000000000000000e+00  -2.5366350079775679e+00 -2.4063138536815288e-04 0.0000000000000000e+00  -2.3755980712864235e+00 -9.5579656544657562e-05 0.0000000000000000e+00  -2.2244427538025473e+00 7.0066409135623739e-05 0.0000000000000000e+00  -2.0823581207783084e+00 2.5001261356660662e-04 0.0000000000000000e+00  -1.9487574325082246e+00 4.4064596296728320e-04 0.0000000000000000e+00  -1.8231355326056347e+00 6.4134922831838659e-04 0.0000000000000000e+00  -1.7050018649006577e+00 8.5256177775765326e-04 0.0000000000000000e+00  -1.5938996564027947e+00 1.0753284659467490e-03 0.0000000000000000e+00  -1.4894012989243397e+00 1.3110927401605596e-03 0.0000000000000000e+00  -1.3911071746645884e+00 1.5616013994447443e-03 0.0000000000000000e+00  -1.2986444027874675e+00 1.8288692298437399e-03 0.0000000000000000e+00  -1.2116656089478812e+00 2.1151727775130134e-03 0.0000000000000000e+00  -1.1298478271095376e+00 2.4230622759461493e-03 0.0000000000000000e+00  -1.0528915163757309e+00 2.7553863815701612e-03 0.0000000000000000e+00  -9.8051970441825065e-01 3.1153275468015053e-03 0.0000000000000000e+00  -9.1247726442154642e-01 3.5064475763979795e-03 0.0000000000000000e+00  -8.4853033340360040e-01 3.9327439972608891e-03 0.0000000000000000e+00  -7.8846588164751497e-01 4.3987187189682324e-03 0.0000000000000000e+00  -7.3209144554277361e-01 4.9094612633991327e-03 0.0000000000000000e+00  -6.7923503962869403e-01 5.4707497258682661e-03 0.0000000000000000e+00  -6.2974526817560716e-01 6.0891737076223633e-03 0.0000000000000000e+00  -5.8349166250742945e-01 6.7722848454529506e-03 0.0000000000000000e+00  -5.4036527787394661e-01 7.5287824096653645e-03 0.0000000000000000e+00  -5.0027959360702379e-01 8.3687439514371510e-03 0.0000000000000000e+00  -4.6317177338421572e-01 9.3039144538961845e-03 0.0000000000000000e+00  -4.2900435988412050e-01 1.0348072322201484e-02 0.0000000000000000e+00  -3.9776750171007863e-01 1.1517497513075736e-02 0.0000000000000000e+00  -3.6948184277550039e-01 1.2831577202095421e-02 0.0000000000000000e+00  -3.4420224926503101e-01 1.4313599277682418e-02 0.0000000000000000e+00  -3.2202261274185257e-01 1.5991806316822548e-02 0.0000000000000000e+00  -3.0308205908902902e-01 1.7900816975788832e-02 0.0000000000000000e+00  -2.8757302651871508e-01 2.0083575444298816e-02 0.0000000000000000e+00  -2.7575187464379131e-01 2.2594075888981123e-02 0.0000000000000000e+00  -2.6795299270866058e-01 2.5501251249587516e-02 0.0000000000000000e+00  -2.6460784422756972e-01 2.8894658394585011e-02 0.0000000000000000e+00  -2.6627117633773378e-01 3.2893019694558781e-02 0.0000000000000000e+00  -2.7365778833660626e-01 3.7657465439165795e-02 0.0000000000000000e+00  -2.8769580848059606e-01 4.3412845695052014e-02 0.0000000000000000e+00  -3.0960473411944550e-01 5.0483490466777407e-02 0.0000000000000000e+00  -3.4101924929225136e-01 5.9356465675884131e-02 0.0000000000000000e+00  -3.8417252872873187e-01 7.0801482566503079e-02 0.0000000000000000e+00  -4.4224494623282073e-01 8.6103471116269051e-02 0.0000000000000000e+00  -5.1981418332467910e-01 1.0761310281199722e-01 0.0000000000000000e+00  -6.2420853734972548e-01 1.3995532630773833e-01 0.0000000000000000e+00  -7.6386719364065914e-01 1.9225701243184218e-01 0.0000000000000000e+00  -9.6957836048093615e-01 2.9305355534084310e-01 0.0000000000000000e+00  -1.1541516106735030e+00 4.6677880088866042e-01 0.0000000000000000e+00  -1.6276550641620378e+00 8.6724210990859107e-01 0.0000000000000000e+00  -3.0258412777891293e+00 -5.9581541717391714e-07 0.0000000000000000e+00  -2.9053006173446838e+00 3.9317583193597564e-05 0.0000000000000000e+00  -2.7028588993407352e+00 2.0375507650517417e-04 0.0000000000000000e+00  -2.5371958148892051e+00 4.3356987345750567e-04 0.0000000000000000e+00  -2.3751978335476753e+00 7.0850633903047483e-04 0.0000000000000000e+00  -2.2242231391917611e+00 1.0195294459917977e-03 0.0000000000000000e+00  -2.0820876101292103e+00 1.3590612498707061e-03 0.0000000000000000e+00  -1.9484712716628081e+00 1.7231249589426084e-03 0.0000000000000000e+00  -1.8228316092797019e+00 2.1113902046626938e-03 0.0000000000000000e+00  -1.7046784057682536e+00 2.5250168283966925e-03 0.0000000000000000e+00  -1.5935548767913774e+00 2.9662870913600013e-03 0.0000000000000000e+00  -1.4890326491834236e+00 3.4382508945236690e-03 0.0000000000000000e+00  -1.3907116973725937e+00 3.9445849083804881e-03 0.0000000000000000e+00  -1.2982187141417965e+00 4.4895360366518531e-03 0.0000000000000000e+00  -1.2112058931474066e+00 5.0779167727761799e-03 0.0000000000000000e+00  -1.1293498060528353e+00 5.7151347367059083e-03 0.0000000000000000e+00  -1.0523504005969744e+00 6.4072474748325722e-03 0.0000000000000000e+00  -9.7993012820578251e-01 7.1610390472312086e-03 0.0000000000000000e+00  -9.1183320440126026e-01 7.9841178776931220e-03 0.0000000000000000e+00  -8.4782500889987678e-01 8.8850373999255772e-03 0.0000000000000000e+00  -7.8769163382572616e-01 9.8734427016776410e-03 0.0000000000000000e+00  -7.3123959104612524e-01 1.0960247992243462e-02 0.0000000000000000e+00  -6.7829569290988656e-01 1.2157851533899203e-02 0.0000000000000000e+00  -6.2870712482064817e-01 1.3480396894525626e-02 0.0000000000000000e+00  -5.8234173335917050e-01 1.4944092228216669e-02 0.0000000000000000e+00  -5.3908856041780362e-01 1.6567603069427624e-02 0.0000000000000000e+00  -4.9885866250503280e-01 1.8372539242465142e-02 0.0000000000000000e+00  -4.6158626568346894e-01 2.0384063529311318e-02 0.0000000000000000e+00  -4.2723032145490264e-01 2.2631659572336541e-02 0.0000000000000000e+00  -3.9577654862509903e-01 2.5150110422069012e-02 0.0000000000000000e+00  -3.6724007266027991e-01 2.7980759178694446e-02 0.0000000000000000e+00  -3.4166881001271854e-01 3.1173152453711685e-02 0.0000000000000000e+00  -3.1914779435015855e-01 3.4787210885451315e-02 0.0000000000000000e+00  -2.9980471035789197e-01 3.8896136792970458e-02 0.0000000000000000e+00  -2.8381699782240438e-01 4.3590370727864890e-02 0.0000000000000000e+00  -2.7142102588123890e-01 4.8983069121533954e-02 0.0000000000000000e+00  -2.6292403846483026e-01 5.5217834486729858e-02 0.0000000000000000e+00  -2.5871984905445977e-01 6.2479859565239104e-02 0.0000000000000000e+00  -2.5930971880323694e-01 7.1012380214562909e-02 0.0000000000000000e+00  -2.6533030454365791e-01 8.1141622259838314e-02 0.0000000000000000e+00  -2.7759194415220306e-01 9.3315770610116741e-02 0.0000000000000000e+00  -2.9712943876517878e-01 1.0816787820377341e-01 0.0000000000000000e+00  -3.2527662719771222e-01 1.2662132557391487e-01 0.0000000000000000e+00  -3.6374184755746397e-01 1.5007243647219240e-01 0.0000000000000000e+00  -4.1478393502866312e-01 1.8072344559281736e-01 0.0000000000000000e+00  -4.8102961811283690e-01 2.2219817485777946e-01 0.0000000000000000e+00  -5.6631519926154172e-01 2.8065379273170521e-01 0.0000000000000000e+00  -6.7117413406567927e-01 3.6728050281119579e-01 0.0000000000000000e+00  -8.0191106872623463e-01 5.0006758228572912e-01 0.0000000000000000e+00  -9.0583051082615906e-01 7.0732663300617615e-01 0.0000000000000000e+00  -1.0987259681087986e+00 1.0506583062172770e+00 0.0000000000000000e+00  -3.0252945370193500e+00 1.3687401276781827e-06 0.0000000000000000e+00  -2.9045499808493576e+00 2.8266471877040302e-04 0.0000000000000000e+00  -2.7028708985675394e+00 6.0565551317194979e-04 0.0000000000000000e+00  -2.5370550587989538e+00 9.7257093105935794e-04 0.0000000000000000e+00  -2.3746964545617475e+00 1.3872799578313983e-03 0.0000000000000000e+00  -2.2238727328167163e+00 1.8407861456656218e-03 0.0000000000000000e+00  -2.0816475500879283e+00 2.3286785065307946e-03 0.0000000000000000e+00  -1.9480159337893779e+00 2.8502332127887434e-03 0.0000000000000000e+00  -1.8223438435118593e+00 3.4066777693928449e-03 0.0000000000000000e+00  -1.7041581713522373e+00 4.0006216656687729e-03 0.0000000000000000e+00  -1.5929985156742197e+00 4.6358430174864755e-03 0.0000000000000000e+00  -1.4884359160487917e+00 5.3170202293228927e-03 0.0000000000000000e+00  -1.3900696922958558e+00 6.0496467325069254e-03 0.0000000000000000e+00  -1.2975258480465934e+00 6.8399974519764454e-03 0.0000000000000000e+00  -1.2104558806689965e+00 7.6951482736883521e-03 0.0000000000000000e+00  -1.1285356049738682e+00 8.6230320430148010e-03 0.0000000000000000e+00  -1.0514641290859534e+00 9.6325251701877019e-03 0.0000000000000000e+00  -9.7896295692619162e-01 1.0733562608556325e-02 0.0000000000000000e+00  -9.1077522262149013e-01 1.1937281798962243e-02 0.0000000000000000e+00  -8.4666506155078158e-01 1.3256198429149253e-02 0.0000000000000000e+00  -7.8641712453841606e-01 1.4704418875832672e-02 0.0000000000000000e+00  -7.2983624426535654e-01 1.6297896304156026e-02 0.0000000000000000e+00  -6.7674726583174249e-01 1.8054739833306226e-02 0.0000000000000000e+00  -6.2699505695006508e-01 1.9995589185655329e-02 0.0000000000000000e+00  -5.8044471762257555e-01 2.2144071111006976e-02 0.0000000000000000e+00  -5.3698201460305972e-01 2.4527358996239708e-02 0.0000000000000000e+00  -4.9651407277740789e-01 2.7176863957544262e-02 0.0000000000000000e+00  -4.5897036423289062e-01 3.0129095115419318e-02 0.0000000000000000e+00  -4.2430404676668665e-01 3.3426739761188297e-02 0.0000000000000000e+00  -3.9249371762441659e-01 3.7120032356533425e-02 0.0000000000000000e+00  -3.6354566628696983e-01 4.1268507202512503e-02 0.0000000000000000e+00  -3.3749673331145053e-01 4.5943266903756177e-02 0.0000000000000000e+00  -3.1441791204191516e-01 5.1229953238360930e-02 0.0000000000000000e+00  -2.9441886798077138e-01 5.7232687887598097e-02 0.0000000000000000e+00  -2.7765359851903326e-01 6.4079372396664669e-02 0.0000000000000000e+00  -2.6432751289675982e-01 7.1928923750448723e-02 0.0000000000000000e+00  -2.5470627969546872e-01 8.0981313926458007e-02 0.0000000000000000e+00  -2.4912683971782346e-01 9.1491745853288384e-02 0.0000000000000000e+00  -2.4801103660019169e-01 1.0379104901749855e-01 0.0000000000000000e+00  -2.5188207547355668e-01 1.1831561149975446e-01 0.0000000000000000e+00  -2.6138404028815360e-01 1.3565221782234119e-01 0.0000000000000000e+00  -2.7730149525679915e-01 1.5660659578755881e-01 0.0000000000000000e+00  -3.0057943186596631e-01 1.8231009119330877e-01 0.0000000000000000e+00  -3.3230894452976800e-01 2.1438788989959509e-01 0.0000000000000000e+00  -3.7372065257438175e-01 2.5522476432970054e-01 0.0000000000000000e+00  -4.2579113476602631e-01 3.0836639679234928e-01 0.0000000000000000e+00  -4.8948605538073020e-01 3.7912503276760978e-01 0.0000000000000000e+00  -5.6123447946596550e-01 4.7504451631778277e-01 0.0000000000000000e+00  -6.4306899685824026e-01 6.0604107279057495e-01 0.0000000000000000e+00  -6.8581228373233283e-01 7.8200250254928716e-01 0.0000000000000000e+00  -7.9580522178982149e-01 9.9066170023478983e-01 0.0000000000000000e+00  -3.0248746956868895e+00 9.2726165632338186e-07 0.0000000000000000e+00  -2.9043275286479231e+00 4.6991682123483471e-04 0.0000000000000000e+00  -2.7024781358356904e+00 9.6370533083568505e-04 0.0000000000000000e+00  -2.5364973383793337e+00 1.4917410580257771e-03 0.0000000000000000e+00  -2.3741899731932872e+00 2.0575659028749999e-03 0.0000000000000000e+00  -2.2233428914606574e+00 2.6610647102390424e-03 0.0000000000000000e+00  -2.0810541316735400e+00 3.3040793536265141e-03 0.0000000000000000e+00  -1.9473966798845603e+00 3.9886255602286863e-03 0.0000000000000000e+00  -1.8216790907776046e+00 4.7179015152926055e-03 0.0000000000000000e+00  -1.7034487612533267e+00 5.4963263507632181e-03 0.0000000000000000e+00  -1.5922382510703985e+00 6.3293848216295912e-03 0.0000000000000000e+00  -1.4876189639345010e+00 7.2235338874621670e-03 0.0000000000000000e+00  -1.3891891519365822e+00 8.1861794922653379e-03 0.0000000000000000e+00  -1.2965739500132489e+00 9.2256859098616365e-03 0.0000000000000000e+00  -1.2094239165414491e+00 1.0351430360070102e-02 0.0000000000000000e+00  -1.1274138363988249e+00 1.1573891424341034e-02 0.0000000000000000e+00  -1.0502416698386792e+00 1.2904770371225591e-02 0.0000000000000000e+00  -9.7762762237574219e-01 1.4357145145982596e-02 0.0000000000000000e+00  -9.0931334590325030e-01 1.5945659318371618e-02 0.0000000000000000e+00  -8.4506127147177279e-01 1.7686750337651505e-02 0.0000000000000000e+00  -7.8465407847203850e-01 1.9598923580083388e-02 0.0000000000000000e+00  -7.2789430683612144e-01 2.1703081059647973e-02 0.0000000000000000e+00  -6.7460412124822777e-01 2.4022916517466335e-02 0.0000000000000000e+00  -6.2462523912132717e-01 2.6585392158123954e-02 0.0000000000000000e+00  -5.7781903733712014e-01 2.9421316873244344e-02 0.0000000000000000e+00  -5.3406685659821684e-01 3.2566051795264221e-02 0.0000000000000000e+00  -4.9327052682749539e-01 3.6060377024482219e-02 0.0000000000000000e+00  -4.5535314250358166e-01 3.9951564168680002e-02 0.0000000000000000e+00  -4.2026012326020717e-01 4.4294714068818672e-02 0.0000000000000000e+00  -3.8796060256490017e-01 4.9154439413352208e-02 0.0000000000000000e+00  -3.5844919575658429e-01 5.4607000297983467e-02 0.0000000000000000e+00  -3.3174820777502873e-01 6.0743040770381174e-02 0.0000000000000000e+00  -3.0791034956384178e-01 6.7671131405907997e-02 0.0000000000000000e+00  -2.8702203799402964e-01 7.5522405138524096e-02 0.0000000000000000e+00  -2.6920735270098267e-01 8.4456693310388284e-02 0.0000000000000000e+00  -2.5463270349735723e-01 9.4670745110788324e-02 0.0000000000000000e+00  -2.4351220843274168e-01 1.0640937505444992e-01 0.0000000000000000e+00  -2.3611364047563274e-01 1.1998077326143862e-01 0.0000000000000000e+00  -2.3276454943806466e-01 1.3577779546708657e-01 0.0000000000000000e+00  -2.3385743547906335e-01 1.5430790989373633e-01 0.0000000000000000e+00  -2.3985213441931016e-01 1.7623571664353402e-01 0.0000000000000000e+00  -2.5126924708486170e-01 2.0244361088925447e-01 0.0000000000000000e+00  -2.6867066896165070e-01 2.3411806606403610e-01 0.0000000000000000e+00  -2.9258704445581879e-01 2.7286997083981440e-01 0.0000000000000000e+00  -3.2343505785443988e-01 3.2089382607363093e-01 0.0000000000000000e+00  -3.6105537668678378e-01 3.8115407435803456e-01 0.0000000000000000e+00  -4.0490238902358300e-01 4.5752261167599362e-01 0.0000000000000000e+00  -4.5036166121039539e-01 5.5464266691306174e-01 0.0000000000000000e+00  -4.9816599413187485e-01 6.7721460525078936e-01 0.0000000000000000e+00  -5.1042303275692258e-01 8.2608916824369449e-01 0.0000000000000000e+00  -5.8373066983981126e-01 9.9968471675603399e-01 0.0000000000000000e+00  -3.0242782507001942e+00 5.1620454755013022e-07 0.0000000000000000e+00  -2.9037546559872895e+00 6.3909369212866881e-04 0.0000000000000000e+00  -2.7018536404808304e+00 1.2944826561946796e-03 0.0000000000000000e+00  -2.5358878534407094e+00 1.9760437051685792e-03 0.0000000000000000e+00  -2.3735446478273330e+00 2.6915028343099797e-03 0.0000000000000000e+00  -2.2226379730299963e+00 3.4459762317881376e-03 0.0000000000000000e+00  -2.0803111281079105e+00 4.2438898739076587e-03 0.0000000000000000e+00  -1.9466089083378320e+00 5.0897833945350614e-03 0.0000000000000000e+00  -1.8208376417266736e+00 5.9891318823729915e-03 0.0000000000000000e+00  -1.7025506418385707e+00 6.9482853421573773e-03 0.0000000000000000e+00  -1.5912754199193049e+00 7.9745455162738114e-03 0.0000000000000000e+00  -1.4865838906155375e+00 9.0762050322266818e-03 0.0000000000000000e+00  -1.3880728902527955e+00 1.0262588220907407e-02 0.0000000000000000e+00  -1.2953665809151751e+00 1.1544115600455979e-02 0.0000000000000000e+00  -1.2081143550043312e+00 1.2932398530181249e-02 0.0000000000000000e+00  -1.1259897246044148e+00 1.4440363258973200e-02 0.0000000000000000e+00  -1.0486892202769198e+00 1.6082407438272626e-02 0.0000000000000000e+00  -9.7593142706637137e-01 1.7874591327059701e-02 0.0000000000000000e+00  -9.0745614654677142e-01 1.9834867894064176e-02 0.0000000000000000e+00  -8.4302368409936579e-01 2.1983357636170368e-02 0.0000000000000000e+00  -7.8241426436264372e-01 2.4342676000361045e-02 0.0000000000000000e+00  -7.2542757866301599e-01 2.6938323742000728e-02 0.0000000000000000e+00  -6.7188247016909830e-01 2.9799153563891130e-02 0.0000000000000000e+00  -6.2161676435639868e-01 3.2957930174105352e-02 0.0000000000000000e+00  -5.7448725437599524e-01 3.6452005767460507e-02 0.0000000000000000e+