<?xml version="1.0"?>
<VTKFile type="UnstructuredGrid"  version="0.1"  >
<UnstructuredGrid>
<Piece  NumberOfPoints="2601" NumberOfCells="5000">
<Points>
<DataArray  type="Float64"  NumberOfComponents="3"  format="ascii">0 0 0  0.02 0 0  0.04 0 0  0.06 0 0  0.08 0 0  0.1 0 0  0.12 0 0  0.14 0 0  0.16 0 0  0.18 0 0  0.2 0 0  0.22 0 0  0.24 0 0  0.26 0 0  0.28 0 0  0.3 0 0  0.32 0 0  0.34 0 0  0.36 0 0  0.38 0 0  0.4 0 0  0.42 0 0  0.44 0 0  0.46 0 0  0.48 0 0  0.5 0 0  0.52 0 0  0.54 0 0  0.5600000000000001 0 0  0.58 0 0  0.6 0 0  0.62 0 0  0.64 0 0  0.66 0 0  0.68 0 0  0.7 0 0  0.72 0 0  0.74 0 0  0.76 0 0  0.78 0 0  0.8 0 0  0.82 0 0  0.84 0 0  0.86 0 0  0.88 0 0  0.9 0 0  0.92 0 0  0.9399999999999999 0 0  0.96 0 0  0.98 0 0  1 0 0  0 0.02 0  0.02 0.02 0  0.04 0.02 0  0.06 0.02 0  0.08 0.02 0  0.1 0.02 0  0.12 0.02 0  0.14 0.02 0  0.16 0.02 0  0.18 0.02 0  0.2 0.02 0  0.22 0.02 0  0.24 0.02 0  0.26 0.02 0  0.28 0.02 0  0.3 0.02 0  0.32 0.02 0  0.34 0.02 0  0.36 0.02 0  0.38 0.02 0  0.4 0.02 0  0.42 0.02 0  0.44 0.02 0  0.46 0.02 0  0.48 0.02 0  0.5 0.02 0  0.52 0.02 0  0.54 0.02 0  0.5600000000000001 0.02 0  0.58 0.02 0  0.6 0.02 0  0.62 0.02 0  0.64 0.02 0  0.66 0.02 0  0.68 0.02 0  0.7 0.02 0  0.72 0.02 0  0.74 0.02 0  0.76 0.02 0  0.78 0.02 0  0.8 0.02 0  0.82 0.02 0  0.84 0.02 0  0.86 0.02 0  0.88 0.02 0  0.9 0.02 0  0.92 0.02 0  0.9399999999999999 0.02 0  0.96 0.02 0  0.98 0.02 0  1 0.02 0  0 0.04 0  0.02 0.04 0  0.04 0.04 0  0.06 0.04 0  0.08 0.04 0  0.1 0.04 0  0.12 0.04 0  0.14 0.04 0  0.16 0.04 0  0.18 0.04 0  0.2 0.04 0  0.22 0.04 0  0.24 0.04 0  0.26 0.04 0  0.28 0.04 0  0.3 0.04 0  0.32 0.04 0  0.34 0.04 0  0.36 0.04 0  0.38 0.04 0  0.4 0.04 0  0.42 0.04 0  0.44 0.04 0  0.46 0.04 0  0.48 0.04 0  0.5 0.04 0  0.52 0.04 0  0.54 0.04 0  0.5600000000000001 0.04 0  0.58 0.04 0  0.6 0.04 0  0.62 0.04 0  0.64 0.04 0  0.66 0.04 0  0.68 0.04 0  0.7 0.04 0  0.72 0.04 0  0.74 0.04 0  0.76 0.04 0  0.78 0.04 0  0.8 0.04 0  0.82 0.04 0  0.84 0.04 0  0.86 0.04 0  0.88 0.04 0  0.9 0.04 0  0.92 0.04 0  0.9399999999999999 0.04 0  0.96 0.04 0  0.98 0.04 0  1 0.04 0  0 0.06 0  0.02 0.06 0  0.04 0.06 0  0.06 0.06 0  0.08 0.06 0  0.1 0.06 0  0.12 0.06 0  0.14 0.06 0  0.16 0.06 0  0.18 0.06 0  0.2 0.06 0  0.22 0.06 0  0.24 0.06 0  0.26 0.06 0  0.28 0.06 0  0.3 0.06 0  0.32 0.06 0  0.34 0.06 0  0.36 0.06 0  0.38 0.06 0  0.4 0.06 0  0.42 0.06 0  0.44 0.06 0  0.46 0.06 0  0.48 0.06 0  0.5 0.06 0  0.52 0.06 0  0.54 0.06 0  0.5600000000000001 0.06 0  0.58 0.06 0  0.6 0.06 0  0.62 0.06 0  0.64 0.06 0  0.66 0.06 0  0.68 0.06 0  0.7 0.06 0  0.72 0.06 0  0.74 0.06 0  0.76 0.06 0  0.78 0.06 0  0.8 0.06 0  0.82 0.06 0  0.84 0.06 0  0.86 0.06 0  0.88 0.06 0  0.9 0.06 0  0.92 0.06 0  0.9399999999999999 0.06 0  0.96 0.06 0  0.98 0.06 0  1 0.06 0  0 0.08 0  0.02 0.08 0  0.04 0.08 0  0.06 0.08 0  0.08 0.08 0  0.1 0.08 0  0.12 0.08 0  0.14 0.08 0  0.16 0.08 0  0.18 0.08 0  0.2 0.08 0  0.22 0.08 0  0.24 0.08 0  0.26 0.08 0  0.28 0.08 0  0.3 0.08 0  0.32 0.08 0  0.34 0.08 0  0.36 0.08 0  0.38 0.08 0  0.4 0.08 0  0.42 0.08 0  0.44 0.08 0  0.46 0.08 0  0.48 0.08 0  0.5 0.08 0  0.52 0.08 0  0.54 0.08 0  0.5600000000000001 0.08 0  0.58 0.08 0  0.6 0.08 0  0.62 0.08 0  0.64 0.08 0  0.66 0.08 0  0.68 0.08 0  0.7 0.08 0  0.72 0.08 0  0.74 0.08 0  0.76 0.08 0  0.78 0.08 0  0.8 0.08 0  0.82 0.08 0  0.84 0.08 0  0.86 0.08 0  0.88 0.08 0  0.9 0.08 0  0.92 0.08 0  0.9399999999999999 0.08 0  0.96 0.08 0  0.98 0.08 0  1 0.08 0  0 0.1 0  0.02 0.1 0  0.04 0.1 0  0.06 0.1 0  0.08 0.1 0  0.1 0.1 0  0.12 0.1 0  0.14 0.1 0  0.16 0.1 0  0.18 0.1 0  0.2 0.1 0  0.22 0.1 0  0.24 0.1 0  0.26 0.1 0  0.28 0.1 0  0.3 0.1 0  0.32 0.1 0  0.34 0.1 0  0.36 0.1 0  0.38 0.1 0  0.4 0.1 0  0.42 0.1 0  0.44 0.1 0  0.46 0.1 0  0.48 0.1 0  0.5 0.1 0  0.52 0.1 0  0.54 0.1 0  0.5600000000000001 0.1 0  0.58 0.1 0  0.6 0.1 0  0.62 0.1 0  0.64 0.1 0  0.66 0.1 0  0.68 0.1 0  0.7 0.1 0  0.72 0.1 0  0.74 0.1 0  0.76 0.1 0  0.78 0.1 0  0.8 0.1 0  0.82 0.1 0  0.84 0.1 0  0.86 0.1 0  0.88 0.1 0  0.9 0.1 0  0.92 0.1 0  0.9399999999999999 0.1 0  0.96 0.1 0  0.98 0.1 0  1 0.1 0  0 0.12 0  0.02 0.12 0  0.04 0.12 0  0.06 0.12 0  0.08 0.12 0  0.1 0.12 0  0.12 0.12 0  0.14 0.12 0  0.16 0.12 0  0.18 0.12 0  0.2 0.12 0  0.22 0.12 0  0.24 0.12 0  0.26 0.12 0  0.28 0.12 0  0.3 0.12 0  0.32 0.12 0  0.34 0.12 0  0.36 0.12 0  0.38 0.12 0  0.4 0.12 0  0.42 0.12 0  0.44 0.12 0  0.46 0.12 0  0.48 0.12 0  0.5 0.12 0  0.52 0.12 0  0.54 0.12 0  0.5600000000000001 0.12 0  0.58 0.12 0  0.6 0.12 0  0.62 0.12 0  0.64 0.12 0  0.66 0.12 0  0.68 0.12 0  0.7 0.12 0  0.72 0.12 0  0.74 0.12 0  0.76 0.12 0  0.78 0.12 0  0.8 0.12 0  0.82 0.12 0  0.84 0.12 0  0.86 0.12 0  0.88 0.12 0  0.9 0.12 0  0.92 0.12 0  0.9399999999999999 0.12 0  0.96 0.12 0  0.98 0.12 0  1 0.12 0  0 0.14 0  0.02 0.14 0  0.04 0.14 0  0.06 0.14 0  0.08 0.14 0  0.1 0.14 0  0.12 0.14 0  0.14 0.14 0  0.16 0.14 0  0.18 0.14 0  0.2 0.14 0  0.22 0.14 0  0.24 0.14 0  0.26 0.14 0  0.28 0.14 0  0.3 0.14 0  0.32 0.14 0  0.34 0.14 0  0.36 0.14 0  0.38 0.14 0  0.4 0.14 0  0.42 0.14 0  0.44 0.14 0  0.46 0.14 0  0.48 0.14 0  0.5 0.14 0  0.52 0.14 0  0.54 0.14 0  0.5600000000000001 0.14 0  0.58 0.14 0  0.6 0.14 0  0.62 0.14 0  0.64 0.14 0  0.66 0.14 0  0.68 0.14 0  0.7 0.14 0  0.72 0.14 0  0.74 0.14 0  0.76 0.14 0  0.78 0.14 0  0.8 0.14 0  0.82 0.14 0  0.84 0.14 0  0.86 0.14 0  0.88 0.14 0  0.9 0.14 0  0.92 0.14 0  0.9399999999999999 0.14 0  0.96 0.14 0  0.98 0.14 0  1 0.14 0  0 0.16 0  0.02 0.16 0  0.04 0.16 0  0.06 0.16 0  0.08 0.16 0  0.1 0.16 0  0.12 0.16 0  0.14 0.16 0  0.16 0.16 0  0.18 0.16 0  0.2 0.16 0  0.22 0.16 0  0.24 0.16 0  0.26 0.16 0  0.28 0.16 0  0.3 0.16 0  0.32 0.16 0  0.34 0.16 0  0.36 0.16 0  0.38 0.16 0  0.4 0.16 0  0.42 0.16 0  0.44 0.16 0  0.46 0.16 0  0.48 0.16 0  0.5 0.16 0  0.52 0.16 0  0.54 0.16 0  0.5600000000000001 0.16 0  0.58 0.16 0  0.6 0.16 0  0.62 0.16 0  0.64 0.16 0  0.66 0.16 0  0.68 0.16 0  0.7 0.16 0  0.72 0.16 0  0.74 0.16 0  0.76 0.16 0  0.78 0.16 0  0.8 0.16 0  0.82 0.16 0  0.84 0.16 0  0.86 0.16 0  0.88 0.16 0  0.9 0.16 0  0.92 0.16 0  0.9399999999999999 0.16 0  0.96 0.16 0  0.98 0.16 0  1 0.16 0  0 0.18 0  0.02 0.18 0  0.04 0.18 0  0.06 0.18 0  0.08 0.18 0  0.1 0.18 0  0.12 0.18 0  0.14 0.18 0  0.16 0.18 0  0.18 0.18 0  0.2 0.18 0  0.22 0.18 0  0.24 0.18 0  0.26 0.18 0  0.28 0.18 0  0.3 0.18 0  0.32 0.18 0  0.34 0.18 0  0.36 0.18 0  0.38 0.18 0  0.4 0.18 0  0.42 0.18 0  0.44 0.18 0  0.46 0.18 0  0.48 0.18 0  0.5 0.18 0  0.52 0.18 0  0.54 0.18 0  0.5600000000000001 0.18 0  0.58 0.18 0  0.6 0.18 0  0.62 0.18 0  0.64 0.18 0  0.66 0.18 0  0.68 0.18 0  0.7 0.18 0  0.72 0.18 0  0.74 0.18 0  0.76 0.18 0  0.78 0.18 0  0.8 0.18 0  0.82 0.18 0  0.84 0.18 0  0.86 0.18 0  0.88 0.18 0  0.9 0.18 0  0.92 0.18 0  0.9399999999999999 0.18 0  0.96 0.18 0  0.98 0.18 0  1 0.18 0  0 0.2 0  0.02 0.2 0  0.04 0.2 0  0.06 0.2 0  0.08 0.2 0  0.1 0.2 0  0.12 0.2 0  0.14 0.2 0  0.16 0.2 0  0.18 0.2 0  0.2 0.2 0  0.22 0.2 0  0.24 0.2 0  0.26 0.2 0  0.28 0.2 0  0.3 0.2 0  0.32 0.2 0  0.34 0.2 0  0.36 0.2 0  0.38 0.2 0  0.4 0.2 0  0.42 0.2 0  0.44 0.2 0  0.46 0.2 0  0.48 0.2 0  0.5 0.2 0  0.52 0.2 0  0.54 0.2 0  0.5600000000000001 0.2 0  0.58 0.2 0  0.6 0.2 0  0.62 0.2 0  0.64 0.2 0  0.66 0.2 0  0.68 0.2 0  0.7 0.2 0  0.72 0.2 0  0.74 0.2 0  0.76 0.2 0  0.78 0.2 0  0.8 0.2 0  0.82 0.2 0  0.84 0.2 0  0.86 0.2 0  0.88 0.2 0  0.9 0.2 0  0.92 0.2 0  0.9399999999999999 0.2 0  0.96 0.2 0  0.98 0.2 0  1 0.2 0  0 0.22 0  0.02 0.22 0  0.04 0.22 0  0.06 0.22 0  0.08 0.22 0  0.1 0.22 0  0.12 0.22 0  0.14 0.22 0  0.16 0.22 0  0.18 0.22 0  0.2 0.22 0  0.22 0.22 0  0.24 0.22 0  0.26 0.22 0  0.28 0.22 0  0.3 0.22 0  0.32 0.22 0  0.34 0.22 0  0.36 0.22 0  0.38 0.22 0  0.4 0.22 0  0.42 0.22 0  0.44 0.22 0  0.46 0.22 0  0.48 0.22 0  0.5 0.22 0  0.52 0.22 0  0.54 0.22 0  0.5600000000000001 0.22 0  0.58 0.22 0  0.6 0.22 0  0.62 0.22 0  0.64 0.22 0  0.66 0.22 0  0.68 0.22 0  0.7 0.22 0  0.72 0.22 0  0.74 0.22 0  0.76 0.22 0  0.78 0.22 0  0.8 0.22 0  0.82 0.22 0  0.84 0.22 0  0.86 0.22 0  0.88 0.22 0  0.9 0.22 0  0.92 0.22 0  0.9399999999999999 0.22 0  0.96 0.22 0  0.98 0.22 0  1 0.22 0  0 0.24 0  0.02 0.24 0  0.04 0.24 0  0.06 0.24 0  0.08 0.24 0  0.1 0.24 0  0.12 0.24 0  0.14 0.24 0  0.16 0.24 0  0.18 0.24 0  0.2 0.24 0  0.22 0.24 0  0.24 0.24 0  0.26 0.24 0  0.28 0.24 0  0.3 0.24 0  0.32 0.24 0  0.34 0.24 0  0.36 0.24 0  0.38 0.24 0  0.4 0.24 0  0.42 0.24 0  0.44 0.24 0  0.46 0.24 0  0.48 0.24 0  0.5 0.24 0  0.52 0.24 0  0.54 0.24 0  0.5600000000000001 0.24 0  0.58 0.24 0  0.6 0.24 0  0.62 0.24 0  0.64 0.24 0  0.66 0.24 0  0.68 0.24 0  0.7 0.24 0  0.72 0.24 0  0.74 0.24 0  0.76 0.24 0  0.78 0.24 0  0.8 0.24 0  0.82 0.24 0  0.84 0.24 0  0.86 0.24 0  0.88 0.24 0  0.9 0.24 0  0.92 0.24 0  0.9399999999999999 0.24 0  0.96 0.24 0  0.98 0.24 0  1 0.24 0  0 0.26 0  0.02 0.26 0  0.04 0.26 0  0.06 0.26 0  0.08 0.26 0  0.1 0.26 0  0.12 0.26 0  0.14 0.26 0  0.16 0.26 0  0.18 0.26 0  0.2 0.26 0  0.22 0.26 0  0.24 0.26 0  0.26 0.26 0  0.28 0.26 0  0.3 0.26 0  0.32 0.26 0  0.34 0.26 0  0.36 0.26 0  0.38 0.26 0  0.4 0.26 0  0.42 0.26 0  0.44 0.26 0  0.46 0.26 0  0.48 0.26 0  0.5 0.26 0  0.52 0.26 0  0.54 0.26 0  0.5600000000000001 0.26 0  0.58 0.26 0  0.6 0.26 0  0.62 0.26 0  0.64 0.26 0  0.66 0.26 0  0.68 0.26 0  0.7 0.26 0  0.72 0.26 0  0.74 0.26 0  0.76 0.26 0  0.78 0.26 0  0.8 0.26 0  0.82 0.26 0  0.84 0.26 0  0.86 0.26 0  0.88 0.26 0  0.9 0.26 0  0.92 0.26 0  0.9399999999999999 0.26 0  0.96 0.26 0  0.98 0.26 0  1 0.26 0  0 0.28 0  0.02 0.28 0  0.04 0.28 0  0.06 0.28 0  0.08 0.28 0  0.1 0.28 0  0.12 0.28 0  0.14 0.28 0  0.16 0.28 0  0.18 0.28 0  0.2 0.28 0  0.22 0.28 0  0.24 0.28 0  0.26 0.28 0  0.28 0.28 0  0.3 0.28 0  0.32 0.28 0  0.34 0.28 0  0.36 0.28 0  0.38 0.28 0  0.4 0.28 0  0.42 0.28 0  0.44 0.28 0  0.46 0.28 0  0.48 0.28 0  0.5 0.28 0  0.52 0.28 0  0.54 0.28 0  0.5600000000000001 0.28 0  0.58 0.28 0  0.6 0.28 0  0.62 0.28 0  0.64 0.28 0  0.66 0.28 0  0.68 0.28 0  0.7 0.28 0  0.72 0.28 0  0.74 0.28 0  0.76 0.28 0  0.78 0.28 0  0.8 0.28 0  0.82 0.28 0  0.84 0.28 0  0.86 0.28
[...]
<PointData  Vectors="f_94"> 
<DataArray  type="Float64"  Name="f_94"  NumberOfComponents="3" format="ascii">-9.9590135527111501e-01 8.4750644267009595e-06 0.0000000000000000e+00  -9.9511339715620628e-01 2.1643969381991178e-04 0.0000000000000000e+00  -9.9298126173004464e-01 3.1688347404531782e-04 0.0000000000000000e+00  -9.8954970731068459e-01 4.1806052159712231e-04 0.0000000000000000e+00  -9.8484887068497995e-01 5.1592682803882576e-04 0.0000000000000000e+00  -9.7893479212223666e-01 6.1398813965563004e-04 0.0000000000000000e+00  -9.7188018595348058e-01 7.1356209967449809e-04 0.0000000000000000e+00  -9.6376857977062513e-01 8.1553423930909405e-04 0.0000000000000000e+00  -9.5469245488018284e-01 9.2071232921969184e-04 0.0000000000000000e+00  -9.4475163574925980e-01 1.0298560199148515e-03 0.0000000000000000e+00  -9.3405205981580874e-01 1.1437194191765043e-03 0.0000000000000000e+00  -9.2270479052615728e-01 1.2630682545717326e-03 0.0000000000000000e+00  -9.1082521980682352e-01 1.3886922508679451e-03 0.0000000000000000e+00  -8.9853243591153698e-01 1.5214156506023963e-03 0.0000000000000000e+00  -8.8594873877236213e-01 1.6621072471776981e-03 0.0000000000000000e+00  -8.7319929034434240e-01 1.8116908075796127e-03 0.0000000000000000e+00  -8.6041189071226065e-01 1.9711564183518175e-03 0.0000000000000000e+00  -8.4771687341590041e-01 2.1415732205309055e-03 0.0000000000000000e+00  -8.3524711595570822e-01 2.3241040045076265e-03 0.0000000000000000e+00  -8.2313816399836814e-01 2.5200222012521341e-03 0.0000000000000000e+00  -8.1152847058097632e-01 2.7307319165141321e-03 0.0000000000000000e+00  -8.0055975477829011e-01 2.9577918131051873e-03 0.0000000000000000e+00  -7.9037748803868069e-01 3.2029438655989764e-03 0.0000000000000000e+00  -7.8113152094730198e-01 3.4681483082989457e-03 0.0000000000000000e+00  -7.7297686885205419e-01 3.7556264997498589e-03 0.0000000000000000e+00  -7.6607468202714546e-01 4.0679139784092645e-03 0.0000000000000000e+00  -7.6059343544497016e-01 4.4079267430903570e-03 0.0000000000000000e+00  -7.5671038564627957e-01 4.7790448534806287e-03 0.0000000000000000e+00  -7.5461335887087178e-01 5.1852189448930155e-03 0.0000000000000000e+00  -7.5450295735414696e-01 5.6311074020058919e-03 0.0000000000000000e+00  -7.5659530221216897e-01 6.1222550673078685e-03 0.0000000000000000e+00  -7.6112547572115763e-01 6.6653289970997958e-03 0.0000000000000000e+00  -7.6835188940608268e-01 7.2684337742746075e-03 0.0000000000000000e+00  -7.7856189709382173e-01 7.9415396637798168e-03 0.0000000000000000e+00  -7.9207911042408075e-01 8.6970738775465576e-03 0.0000000000000000e+00  -8.0927308363619344e-01 9.5507526673085548e-03 0.0000000000000000e+00  -8.3057236534332657e-01 1.0522777683048689e-02 0.0000000000000000e+00  -8.5648242669887886e-01 1.1639598408522954e-02 0.0000000000000000e+00  -8.8761089579771257e-01 1.2936584262292895e-02 0.0000000000000000e+00  -9.2470380071881730e-01 1.4462209921400498e-02 0.0000000000000000e+00  -9.6870001695118924e-01 1.6284879881245211e-02 0.0000000000000000e+00  -1.0208128219060768e+00 1.8504740351454274e-02 0.0000000000000000e+00  -1.0826701626556536e+00 2.1274886402518147e-02 0.0000000000000000e+00  -1.1565140459176408e+00 2.4845253212880121e-02 0.0000000000000000e+00  -1.2457494004585103e+00 2.9675973242061265e-02 0.0000000000000000e+00  -1.3550751621084263e+00 3.6610117088128294e-02 0.0000000000000000e+00  -1.4959329042793446e+00 4.8493807508104662e-02 0.0000000000000000e+00  -1.6755220745034003e+00 7.2144630952659800e-02 0.0000000000000000e+00  -1.9721125583200303e+00 1.3579717319489179e-01 0.0000000000000000e+00  -2.4683637301379386e+00 4.5897014495983768e-01 0.0000000000000000e+00  -3.2858448662617756e+00 1.3368236754115552e+00 0.0000000000000000e+00  -9.9548465133908037e-01 8.8496479491438687e-07 0.0000000000000000e+00  -9.9491805009305423e-01 3.8964372029634244e-04 0.0000000000000000e+00  -9.9279553916005692e-01 7.2942695199470033e-04 0.0000000000000000e+00  -9.8937743658324329e-01 1.0578246571584828e-03 0.0000000000000000e+00  -9.8467738895493939e-01 1.3804988816490751e-03 0.0000000000000000e+00  -9.7876163114772596e-01 1.7067553232227287e-03 0.0000000000000000e+00  -9.7170355444145662e-01 2.0392695115622069e-03 0.0000000000000000e+00  -9.6358702926119766e-01 2.3806698505900322e-03 0.0000000000000000e+00  -9.5450467986476750e-01 2.7332318957385107e-03 0.0000000000000000e+00  -9.4455635873605048e-01 3.0991627940335875e-03 0.0000000000000000e+00  -9.3384799482368164e-01 3.4806891006264910e-03 0.0000000000000000e+00  -9.2249061754730521e-01 3.8801032553678308e-03 0.0000000000000000e+00  -9.1059956573757750e-01 4.2997994089994246e-03 0.0000000000000000e+00  -8.9829385744721624e-01 4.7423035177369963e-03 0.0000000000000000e+00  -8.8569570526133101e-01 5.2103028123786461e-03 0.0000000000000000e+00  -8.7293016550875768e-01 5.7066768742594998e-03 0.0000000000000000e+00  -8.6012491238486111e-01 6.2345319426002797e-03 0.0000000000000000e+00  -8.4741013050657832e-01 6.7972398796730575e-03 0.0000000000000000e+00  -8.3491852180117243e-01 7.3984832656244729e-03 0.0000000000000000e+00  -8.2278542510077768e-01 8.0423083115548945e-03 0.0000000000000000e+00  -8.1114904951657418e-01 8.7331876376868251e-03 0.0000000000000000e+00  -8.0015082574218432e-01 9.4760954742344489e-03 0.0000000000000000e+00  -7.8993588306216789e-01 1.0276598541616324e-02 0.0000000000000000e+00  -7.8065366424299509e-01 1.1140966813907244e-02 0.0000000000000000e+00  -7.7245869595171235e-01 1.2076309652091478e-02 0.0000000000000000e+00  -7.6551153929218174e-01 1.3090744546862319e-02 0.0000000000000000e+00  -7.5997995402932506e-01 1.4193608126132646e-02 0.0000000000000000e+00  -7.5604032188563952e-01 1.5395722449607298e-02 0.0000000000000000e+00  -7.5387939008379157e-01 1.6709734367209787e-02 0.0000000000000000e+00  -7.5369641773366491e-01 1.8150552523370639e-02 0.0000000000000000e+00  -7.5570583718079432e-01 1.9735916479903540e-02 0.0000000000000000e+00  -7.6014058373407456e-01 2.1487147046147091e-02 0.0000000000000000e+00  -7.6725630592464833e-01 2.3430148898224326e-02 0.0000000000000000e+00  -7.7733675338408958e-01 2.5596770333559664e-02 0.0000000000000000e+00  -7.9070076466088668e-01 2.8026677998675056e-02 0.0000000000000000e+00  -8.0771146515716907e-01 3.0769989667292951e-02 0.0000000000000000e+00  -8.2878857533890327e-01 3.3891049058961287e-02 0.0000000000000000e+00  -8.5442518017505587e-01 3.7473967034549770e-02 0.0000000000000000e+00  -8.8521106037436703e-01 4.1630977999116171e-02 0.0000000000000000e+00  -9.2186584596416754e-01 4.6515438972658259e-02 0.0000000000000000e+00  -9.6528760212642251e-01 5.2342813475955749e-02 0.0000000000000000e+00  -1.0166251444953236e+00 5.9425975408950935e-02 0.0000000000000000e+00  -1.0773932502325125e+00 6.8237806489377134e-02 0.0000000000000000e+00  -1.1496483738287102e+00 7.9530102103480355e-02 0.0000000000000000e+00  -1.2363130575769692e+00 9.4564514252591103e-02 0.0000000000000000e+00  -1.3416396640339106e+00 1.1566017427673631e-01 0.0000000000000000e+00  -1.4724152660465961e+00 1.4739636598442388e-01 0.0000000000000000e+00  -1.6366688800436011e+00 1.9882519214583713e-01 0.0000000000000000e+00  -1.8635084262636301e+00 2.9835293833900983e-01 0.0000000000000000e+00  -2.0669570953383420e+00 4.7005663862377939e-01 0.0000000000000000e+00  -2.5474009307132777e+00 8.6711584288367205e-01 0.0000000000000000e+00  -9.9485130392508492e-01 -9.1185144090460592e-07 0.0000000000000000e+00  -9.9440117055087995e-01 7.1120857625662213e-04 0.0000000000000000e+00  -9.9226281035421682e-01 1.4163083274259657e-03 0.0000000000000000e+00  -9.8885439822446208e-01 2.1199641188244735e-03 0.0000000000000000e+00  -9.8414864725307072e-01 2.8268491649538494e-03 0.0000000000000000e+00  -9.7822422528031872e-01 3.5440757322825096e-03 0.0000000000000000e+00  -9.7115310692205481e-01 4.2763779736820686e-03 0.0000000000000000e+00  -9.6301995882385816e-01 5.0288500890953583e-03 0.0000000000000000e+00  -9.5391750031573874e-01 5.8061071089824737e-03 0.0000000000000000e+00  -9.4394557789292899e-01 6.6127798872480823e-03 0.0000000000000000e+00  -9.3321003160415883e-01 7.4535795832216508e-03 0.0000000000000000e+00  -9.2182174171667941e-01 8.3333886488235632e-03 0.0000000000000000e+00  -9.0989584984409144e-01 9.2573271406457477e-03 0.0000000000000000e+00  -8.9755113107171169e-01 1.0230813084821509e-02 0.0000000000000000e+00  -8.8490950790602618e-01 1.1259623220844752e-02 0.0000000000000000e+00  -8.7209569531488274e-01 1.2349957859539037e-02 0.0000000000000000e+00  -8.5923696841900321e-01 1.3508512995386005e-02 0.0000000000000000e+00  -8.4646304640116821e-01 1.4742562509211063e-02 0.0000000000000000e+00  -8.3390608829343449e-01 1.6060053490446521e-02 0.0000000000000000e+00  -8.2170079855372635e-01 1.7469718189474421e-02 0.0000000000000000e+00  -8.0998464282341576e-01 1.8981206868518095e-02 0.0000000000000000e+00  -7.9889817707331101e-01 2.0605246885107845e-02 0.0000000000000000e+00  -7.8858549663844668e-01 2.2353834789148354e-02 0.0000000000000000e+00  -7.7919481559652937e-01 2.4240470164270448e-02 0.0000000000000000e+00  -7.7087919180017983e-01 2.6280442576620031e-02 0.0000000000000000e+00  -7.6379741895744779e-01 2.8491186570919241e-02 0.0000000000000000e+00  -7.5811511491807160e-01 3.0892724560357888e-02 0.0000000000000000e+00  -7.5400604538051741e-01 3.3508224257994372e-02 0.0000000000000000e+00  -7.5165373545911451e-01 3.6364706840218169e-02 0.0000000000000000e+00  -7.5125343916990073e-01 3.9493955597053522e-02 0.0000000000000000e+00  -7.5301456067036976e-01 4.2933694379738332e-02 0.0000000000000000e+00  -7.5716365357385895e-01 4.6729133788839645e-02 0.0000000000000000e+00  -7.6394816959206513e-01 5.0935025672280788e-02 0.0000000000000000e+00  -7.7364119061566305e-01 5.5618431129371537e-02 0.0000000000000000e+00  -7.8654746747684612e-01 6.0862507154270183e-02 0.0000000000000000e+00  -8.0301121570646083e-01 6.6771774973406223e-02 0.0000000000000000e+00  -8.2342630425522834e-01 7.3479588658511508e-02 0.0000000000000000e+00  -8.4824973510943524e-01 8.1158946839028440e-02 0.0000000000000000e+00  -8.7801972374630832e-01 9.0038514812761566e-02 0.0000000000000000e+00  -9.1338016083512363e-01 1.0042700024453836e-01 0.0000000000000000e+00  -9.5511435227998021e-01 1.1275134426560915e-01 0.0000000000000000e+00  -1.0041904685690117e+00 1.2761853519439340e-01 0.0000000000000000e+00  -1.0618275573993101e+00 1.4591946621395332e-01 0.0000000000000000e+00  -1.1295656353483954e+00 1.6900908551841279e-01 0.0000000000000000e+00  -1.2094138527679734e+00 1.9903537984766922e-01 0.0000000000000000e+00  -1.3037019960307099e+00 2.3954802759216520e-01 0.0000000000000000e+00  -1.4157200732116422e+00 2.9659734611949234e-01 0.0000000000000000e+00  -1.5457792048968004e+00 3.8120759560620743e-01 0.0000000000000000e+00  -1.6982081159353533e+00 5.1108980212006139e-01 0.0000000000000000e+00  -1.8233163877322627e+00 7.1404070490233440e-01 0.0000000000000000e+00  -2.0230577440108193e+00 1.0508212088028963e+00 0.0000000000000000e+00  -9.9388884517242360e-01 1.3539967862615349e-07 0.0000000000000000e+00  -9.9355455344164678e-01 1.0295594367126777e-03 0.0000000000000000e+00  -9.9139254695841472e-01 2.0574663593865465e-03 0.0000000000000000e+00  -9.8798830307475749e-01 3.0889270487212466e-03 0.0000000000000000e+00  -9.8327034434248017e-01 4.1306499877521215e-03 0.0000000000000000e+00  -9.7732984620642716e-01 5.1897229388275052e-03 0.0000000000000000e+00  -9.7023617876713952e-01 6.2727493910255342e-03 0.0000000000000000e+00  -9.6207499499952265e-01 7.3863785998004878e-03 0.0000000000000000e+00  -9.5293889138697985e-01 8.5370953704231277e-03 0.0000000000000000e+00  -9.4292765033722548e-01 9.7315433826286272e-03 0.0000000000000000e+00  -9.3214692156281442e-01 1.0976549337992620e-02 0.0000000000000000e+00  -9.2070732007516454e-01 1.2279230224620951e-02 0.0000000000000000e+00  -9.0872365104034014e-01 1.3647070197555249e-02 0.0000000000000000e+00  -8.9631428225179033e-01 1.5088001238315118e-02 0.0000000000000000e+00  -8.8360065413690991e-01 1.6610487095553961e-02 0.0000000000000000e+00  -8.7070691717781634e-01 1.8223614939875052e-02 0.0000000000000000e+00  -8.5775968879835796e-01 1.9937198246407842e-02 0.0000000000000000e+00  -8.4488792310060989e-01 2.1761894531674063e-02 0.0000000000000000e+00  -8.3222288864574989e-01 2.3709342040072297e-02 0.0000000000000000e+00  -8.1989825142167128e-01 2.5792320228692420e-02 0.0000000000000000e+00  -8.0805026229434773e-01 2.8024939994346066e-02 0.0000000000000000e+00  -7.9681805066296951e-01 3.0422871079813105e-02 0.0000000000000000e+00  -7.8634402882244925e-01 3.3003616096045185e-02 0.0000000000000000e+00  -7.7677441480786280e-01 3.5786843268474894e-02 0.0000000000000000e+00  -7.6825988541603785e-01 3.8794793596128550e-02 0.0000000000000000e+00  -7.6095637588459275e-01 4.2052782942706625e-02 0.0000000000000000e+00  -7.5502604863876899e-01 4.5589826152907062e-02 0.0000000000000000e+00  -7.5063846095920328e-01 4.9439419323666731e-02 0.0000000000000000e+00  -7.4797197086133216e-01 5.3640528914387801e-02 0.0000000000000000e+00  -7.4721543254081513e-01 5.8238854031059641e-02 0.0000000000000000e+00  -7.4857024824049867e-01 6.3288453346622531e-02 0.0000000000000000e+00  -7.5225286335482044e-01 6.8853864376318449e-02 0.0000000000000000e+00  -7.5849781724256971e-01 7.5012895894366299e-02 0.0000000000000000e+00  -7.6756149485988945e-01 8.1860353140881095e-02 0.0000000000000000e+00  -7.7972676514798089e-01 8.9513074562289477e-02 0.0000000000000000e+00  -7.9530874043985855e-01 9.8116841734916263e-02 0.0000000000000000e+00  -8.1466194508733070e-01 1.0785600999196850e-01 0.0000000000000000e+00  -8.3818922022374565e-01 1.1896716202758745e-01 0.0000000000000000e+00  -8.6635270734385394e-01 1.3175882298937955e-01 0.0000000000000000e+00  -8.9968704014834577e-01 1.4664048557406323e-01 0.0000000000000000e+00  -9.3881464105692658e-01 1.6416620719183825e-01 0.0000000000000000e+00  -9.8446051567213966e-01 1.8510140746456910e-01 0.0000000000000000e+00  -1.0374644016880734e+00 2.1052699161589161e-01 0.0000000000000000e+00  -1.0987627724203823e+00 2.4200370233354615e-01 0.0000000000000000e+00  -1.1693557640913199e+00 2.8183176993115117e-01 0.0000000000000000e+00  -1.2499574748836755e+00 3.3344214724394550e-01 0.0000000000000000e+00  -1.3410255884499021e+00 4.0198529671116379e-01 0.0000000000000000e+00  -1.4389124866906653e+00 4.9476569543732668e-01 0.0000000000000000e+00  -1.5436122782313482e+00 6.2133530018828220e-01 0.0000000000000000e+00  -1.6101642612136233e+00 7.9100465166735445e-01 0.0000000000000000e+00  -1.7277755194066409e+00 9.9062702419472559e-01 0.0000000000000000e+00  -9.9260743967550236e-01 1.9946572563957221e-07 0.0000000000000000e+00  -9.9238950316567487e-01 1.3497253739912052e-03 0.0000000000000000e+00  -9.9019218476723070e-01 2.7038056078455396e-03 0.0000000000000000e+00  -9.8678509848003415e-01 4.0682600353350341e-03 0.0000000000000000e+00  -9.8204752849521770e-01 5.4500825409991016e-03 0.0000000000000000e+00  -9.7608266865725779e-01 6.8569711559187370e-03 0.0000000000000000e+00  -9.6895660792856397e-01 8.2969364676791744e-03 0.0000000000000000e+00  -9.6075580331145316e-01 9.7781758897937162e-03 0.0000000000000000e+00  -9.5157250368470236e-01 1.1309049323258524e-02 0.0000000000000000e+00  -9.4150632873420359e-01 1.2898175944866749e-02 0.0000000000000000e+00  -9.3066261137999651e-01 1.4554486842748512e-02 0.0000000000000000e+00  -9.1915157669666370e-01 1.6287327640858641e-02 0.0000000000000000e+00  -9.0708755100783778e-01 1.8106544256150485e-02 0.0000000000000000e+00  -8.9458833261521353e-01 2.0022580460422688e-02 0.0000000000000000e+00  -8.8177469372558492e-01 2.2046581974566139e-02 0.0000000000000000e+00  -8.6877000649648317e-01 2.4190512361741797e-02 0.0000000000000000e+00  -8.5569998483072884e-01 2.6467284020452189e-02 0.0000000000000000e+00  -8.4269253483896311e-01 2.8890908481888706e-02 0.0000000000000000e+00  -8.2987770844022268e-01 3.1476670894050415e-02 0.0000000000000000e+00  -8.1738775618368542e-01 3.4241334595263850e-02 0.0000000000000000e+00  -8.0535727714970351e-01 3.7203383054317779e-02 0.0000000000000000e+00  -7.9392346573041317e-01 4.0383308278006222e-02 0.0000000000000000e+00  -7.8322645724490314e-01 4.3803957193648407e-02 0.0000000000000000e+00  -7.7340977677376244e-01 4.7490950693651293e-02 0.0000000000000000e+00  -7.6462089837369263e-01 5.1473194247900013e-02 0.0000000000000000e+00  -7.5701192504374692e-01 5.5783504624467607e-02 0.0000000000000000e+00  -7.5074040354776561e-01 6.0459384841447583e-02 0.0000000000000000e+00  -7.4597029254630587e-01 6.5543989767088154e-02 0.0000000000000000e+00  -7.4287310751676860e-01 7.1087338888474585e-02 0.0000000000000000e+00  -7.4162927163788284e-01 7.7147852281530066e-02 0.0000000000000000e+00  -7.4242970801974029e-01 8.3794313088771957e-02 0.0000000000000000e+00  -7.4547771486970382e-01 9.1108398335235430e-02 0.0000000000000000e+00  -7.5099117023465700e-01 9.9187974917797808e-02 0.0000000000000000e+00  -7.5920511431330173e-01 1.0815143698604231e-01 0.0000000000000000e+00  -7.7037475001756561e-01 1.1814347670161977e-01 0.0000000000000000e+00  -7.8477887580368111e-01 1.2934285082649008e-01 0.0000000000000000e+00  -8.0272370055414166e-01 1.4197295860101283e-01 0.0000000000000000e+00  -8.2454684149088220e-01 1.5631642374271748e-01 0.0000000000000000e+00  -8.5062102229093606e-01 1.7273543599709409e-01 0.0000000000000000e+00  -8.8135630576273227e-01 1.9170043715396129e-01 0.0000000000000000e+00  -9.1719872765679644e-01 2.1383092589644417e-01 0.0000000000000000e+00  -9.5861968986326318e-01 2.3995373105861090e-01 0.0000000000000000e+00  -1.0060897024446156e+00 2.7118587674679834e-01 0.0000000000000000e+00  -1.0600045683334351e+00 3.0904989669755839e-01 0.0000000000000000e+00  -1.1205772849158031e+00 3.5562548839176156e-01 0.0000000000000000e+00  -1.1874325381792794e+00 4.1372423980025969e-01 0.0000000000000000e+00  -1.2595636175884644e+00 4.8700945619148955e-01 0.0000000000000000e+00  -1.3324453658725475e+00 5.7983242036920368e-01 0.0000000000000000e+00  -1.4046807131763390e+00 6.9648251747214651e-01 0.0000000000000000e+00  -1.4437479874952230e+00 8.3721958547485453e-01 0.0000000000000000e+00  -1.5258337555904466e+00 9.9971868922985152e-01 0.0000000000000000e+00  -9.9100844243335906e-01 3.1099640724080899e-07 0.0000000000000000e+00  -9.9090340573049129e-01 1.6668755963433160e-03 0.0000000000000000e+00  -9.8866589097270663e-01 3.3409410339045259e-03 0.0000000000000000e+00  -9.8525093894605342e-01 5.0297416558935850e-03 0.0000000000000000e+00  -9.8048671286237243e-01 6.7419074243340879e-03 0.0000000000000000e+00  -9.7448930136122014e-01 8.4865506729389396e-03 0.0000000000000000e+00  -9.6732110113631753e-01 1.0273159417548172e-02 0.0000000000000000e+00  -9.5906922695961638e-01 1.2111529319109434e-02 0.0000000000000000e+00  -9.4982542063583408e-01 1.4011776130241599e-02 0.0000000000000000e+00  -9.3968902020296274e-01 1.5984385219881200e-02 0.0000000000000000e+00  -9.2876491602193101e-01 1.8040284220712247e-02 0.0000000000000000e+00  -9.1716281927314136e-01 2.0190933732562307e-02 0.0000000000000000e+00  -9.0499643945854991e-01 2.2448423238650785e-02 0.0000000000000000e+00  -8.9238285165719744e-01 2.4825580973089369e-02 0.0000000000000000e+00  -8.7944198568818843e-01 2.7336094562156001e-02 0.0000000000000000e+00  -8.6629623731851113e-01 2.9994647117880729e-02 0.0000000000000000e+00  -8.5307019108346149e-01 3.2817071818578750e-02 0.0000000000000000e+00  -8.3989044711115690e-01 3.5820529521254085e-02 0.0000000000000000e+00  -8.2688554542670878e-01 3.9023714751075834e-02 0.0000000000000000e+00  -8.1418598253305774e-01 4.2447096654877885e-02 0.0000000000000000e+00  -8.0192431644362583e-01 4.6113203062992908e-02 0.0000000000000000e+00  -7.9023535776180576e-01 5.0046957822173853e-02 0.0000000000000000e+00  -7.7925644587513487e-01 5.4276084183704457e-02 0.0000000000000000e+00  -7.6912781085190740e-01 5.8831590446728560e-02 0.0000000000000000e+00  -7.5999302318076489e-01 6.3748358531153071e-02 0.0000000000000000e+00  -7.51999535