<?xml version="1.0"?>
<VTKFile type="UnstructuredGrid"  version="0.1"  >
<UnstructuredGrid>
<Piece  NumberOfPoints="2601" NumberOfCells="5000">
<Points>
<DataArray  type="Float64"  NumberOfComponents="3"  format="ascii">0 0 0  0.02 0 0  0.04 0 0  0.06 0 0  0.08 0 0  0.1 0 0  0.12 0 0  0.14 0 0  0.16 0 0  0.18 0 0  0.2 0 0  0.22 0 0  0.24 0 0  0.26 0 0  0.28 0 0  0.3 0 0  0.32 0 0  0.34 0 0  0.36 0 0  0.38 0 0  0.4 0 0  0.42 0 0  0.44 0 0  0.46 0 0  0.48 0 0  0.5 0 0  0.52 0 0  0.54 0 0  0.5600000000000001 0 0  0.58 0 0  0.6 0 0  0.62 0 0  0.64 0 0  0.66 0 0  0.68 0 0  0.7 0 0  0.72 0 0  0.74 0 0  0.76 0 0  0.78 0 0  0.8 0 0  0.82 0 0  0.84 0 0  0.86 0 0  0.88 0 0  0.9 0 0  0.92 0 0  0.9399999999999999 0 0  0.96 0 0  0.98 0 0  1 0 0  0 0.02 0  0.02 0.02 0  0.04 0.02 0  0.06 0.02 0  0.08 0.02 0  0.1 0.02 0  0.12 0.02 0  0.14 0.02 0  0.16 0.02 0  0.18 0.02 0  0.2 0.02 0  0.22 0.02 0  0.24 0.02 0  0.26 0.02 0  0.28 0.02 0  0.3 0.02 0  0.32 0.02 0  0.34 0.02 0  0.36 0.02 0  0.38 0.02 0  0.4 0.02 0  0.42 0.02 0  0.44 0.02 0  0.46 0.02 0  0.48 0.02 0  0.5 0.02 0  0.52 0.02 0  0.54 0.02 0  0.5600000000000001 0.02 0  0.58 0.02 0  0.6 0.02 0  0.62 0.02 0  0.64 0.02 0  0.66 0.02 0  0.68 0.02 0  0.7 0.02 0  0.72 0.02 0  0.74 0.02 0  0.76 0.02 0  0.78 0.02 0  0.8 0.02 0  0.82 0.02 0  0.84 0.02 0  0.86 0.02 0  0.88 0.02 0  0.9 0.02 0  0.92 0.02 0  0.9399999999999999 0.02 0  0.96 0.02 0  0.98 0.02 0  1 0.02 0  0 0.04 0  0.02 0.04 0  0.04 0.04 0  0.06 0.04 0  0.08 0.04 0  0.1 0.04 0  0.12 0.04 0  0.14 0.04 0  0.16 0.04 0  0.18 0.04 0  0.2 0.04 0  0.22 0.04 0  0.24 0.04 0  0.26 0.04 0  0.28 0.04 0  0.3 0.04 0  0.32 0.04 0  0.34 0.04 0  0.36 0.04 0  0.38 0.04 0  0.4 0.04 0  0.42 0.04 0  0.44 0.04 0  0.46 0.04 0  0.48 0.04 0  0.5 0.04 0  0.52 0.04 0  0.54 0.04 0  0.5600000000000001 0.04 0  0.58 0.04 0  0.6 0.04 0  0.62 0.04 0  0.64 0.04 0  0.66 0.04 0  0.68 0.04 0  0.7 0.04 0  0.72 0.04 0  0.74 0.04 0  0.76 0.04 0  0.78 0.04 0  0.8 0.04 0  0.82 0.04 0  0.84 0.04 0  0.86 0.04 0  0.88 0.04 0  0.9 0.04 0  0.92 0.04 0  0.9399999999999999 0.04 0  0.96 0.04 0  0.98 0.04 0  1 0.04 0  0 0.06 0  0.02 0.06 0  0.04 0.06 0  0.06 0.06 0  0.08 0.06 0  0.1 0.06 0  0.12 0.06 0  0.14 0.06 0  0.16 0.06 0  0.18 0.06 0  0.2 0.06 0  0.22 0.06 0  0.24 0.06 0  0.26 0.06 0  0.28 0.06 0  0.3 0.06 0  0.32 0.06 0  0.34 0.06 0  0.36 0.06 0  0.38 0.06 0  0.4 0.06 0  0.42 0.06 0  0.44 0.06 0  0.46 0.06 0  0.48 0.06 0  0.5 0.06 0  0.52 0.06 0  0.54 0.06 0  0.5600000000000001 0.06 0  0.58 0.06 0  0.6 0.06 0  0.62 0.06 0  0.64 0.06 0  0.66 0.06 0  0.68 0.06 0  0.7 0.06 0  0.72 0.06 0  0.74 0.06 0  0.76 0.06 0  0.78 0.06 0  0.8 0.06 0  0.82 0.06 0  0.84 0.06 0  0.86 0.06 0  0.88 0.06 0  0.9 0.06 0  0.92 0.06 0  0.9399999999999999 0.06 0  0.96 0.06 0  0.98 0.06 0  1 0.06 0  0 0.08 0  0.02 0.08 0  0.04 0.08 0  0.06 0.08 0  0.08 0.08 0  0.1 0.08 0  0.12 0.08 0  0.14 0.08 0  0.16 0.08 0  0.18 0.08 0  0.2 0.08 0  0.22 0.08 0  0.24 0.08 0  0.26 0.08 0  0.28 0.08 0  0.3 0.08 0  0.32 0.08 0  0.34 0.08 0  0.36 0.08 0  0.38 0.08 0  0.4 0.08 0  0.42 0.08 0  0.44 0.08 0  0.46 0.08 0  0.48 0.08 0  0.5 0.08 0  0.52 0.08 0  0.54 0.08 0  0.5600000000000001 0.08 0  0.58 0.08 0  0.6 0.08 0  0.62 0.08 0  0.64 0.08 0  0.66 0.08 0  0.68 0.08 0  0.7 0.08 0  0.72 0.08 0  0.74 0.08 0  0.76 0.08 0  0.78 0.08 0  0.8 0.08 0  0.82 0.08 0  0.84 0.08 0  0.86 0.08 0  0.88 0.08 0  0.9 0.08 0  0.92 0.08 0  0.9399999999999999 0.08 0  0.96 0.08 0  0.98 0.08 0  1 0.08 0  0 0.1 0  0.02 0.1 0  0.04 0.1 0  0.06 0.1 0  0.08 0.1 0  0.1 0.1 0  0.12 0.1 0  0.14 0.1 0  0.16 0.1 0  0.18 0.1 0  0.2 0.1 0  0.22 0.1 0  0.24 0.1 0  0.26 0.1 0  0.28 0.1 0  0.3 0.1 0  0.32 0.1 0  0.34 0.1 0  0.36 0.1 0  0.38 0.1 0  0.4 0.1 0  0.42 0.1 0  0.44 0.1 0  0.46 0.1 0  0.48 0.1 0  0.5 0.1 0  0.52 0.1 0  0.54 0.1 0  0.5600000000000001 0.1 0  0.58 0.1 0  0.6 0.1 0  0.62 0.1 0  0.64 0.1 0  0.66 0.1 0  0.68 0.1 0  0.7 0.1 0  0.72 0.1 0  0.74 0.1 0  0.76 0.1 0  0.78 0.1 0  0.8 0.1 0  0.82 0.1 0  0.84 0.1 0  0.86 0.1 0  0.88 0.1 0  0.9 0.1 0  0.92 0.1 0  0.9399999999999999 0.1 0  0.96 0.1 0  0.98 0.1 0  1 0.1 0  0 0.12 0  0.02 0.12 0  0.04 0.12 0  0.06 0.12 0  0.08 0.12 0  0.1 0.12 0  0.12 0.12 0  0.14 0.12 0  0.16 0.12 0  0.18 0.12 0  0.2 0.12 0  0.22 0.12 0  0.24 0.12 0  0.26 0.12 0  0.28 0.12 0  0.3 0.12 0  0.32 0.12 0  0.34 0.12 0  0.36 0.12 0  0.38 0.12 0  0.4 0.12 0  0.42 0.12 0  0.44 0.12 0  0.46 0.12 0  0.48 0.12 0  0.5 0.12 0  0.52 0.12 0  0.54 0.12 0  0.5600000000000001 0.12 0  0.58 0.12 0  0.6 0.12 0  0.62 0.12 0  0.64 0.12 0  0.66 0.12 0  0.68 0.12 0  0.7 0.12 0  0.72 0.12 0  0.74 0.12 0  0.76 0.12 0  0.78 0.12 0  0.8 0.12 0  0.82 0.12 0  0.84 0.12 0  0.86 0.12 0  0.88 0.12 0  0.9 0.12 0  0.92 0.12 0  0.9399999999999999 0.12 0  0.96 0.12 0  0.98 0.12 0  1 0.12 0  0 0.14 0  0.02 0.14 0  0.04 0.14 0  0.06 0.14 0  0.08 0.14 0  0.1 0.14 0  0.12 0.14 0  0.14 0.14 0  0.16 0.14 0  0.18 0.14 0  0.2 0.14 0  0.22 0.14 0  0.24 0.14 0  0.26 0.14 0  0.28 0.14 0  0.3 0.14 0  0.32 0.14 0  0.34 0.14 0  0.36 0.14 0  0.38 0.14 0  0.4 0.14 0  0.42 0.14 0  0.44 0.14 0  0.46 0.14 0  0.48 0.14 0  0.5 0.14 0  0.52 0.14 0  0.54 0.14 0  0.5600000000000001 0.14 0  0.58 0.14 0  0.6 0.14 0  0.62 0.14 0  0.64 0.14 0  0.66 0.14 0  0.68 0.14 0  0.7 0.14 0  0.72 0.14 0  0.74 0.14 0  0.76 0.14 0  0.78 0.14 0  0.8 0.14 0  0.82 0.14 0  0.84 0.14 0  0.86 0.14 0  0.88 0.14 0  0.9 0.14 0  0.92 0.14 0  0.9399999999999999 0.14 0  0.96 0.14 0  0.98 0.14 0  1 0.14 0  0 0.16 0  0.02 0.16 0  0.04 0.16 0  0.06 0.16 0  0.08 0.16 0  0.1 0.16 0  0.12 0.16 0  0.14 0.16 0  0.16 0.16 0  0.18 0.16 0  0.2 0.16 0  0.22 0.16 0  0.24 0.16 0  0.26 0.16 0  0.28 0.16 0  0.3 0.16 0  0.32 0.16 0  0.34 0.16 0  0.36 0.16 0  0.38 0.16 0  0.4 0.16 0  0.42 0.16 0  0.44 0.16 0  0.46 0.16 0  0.48 0.16 0  0.5 0.16 0  0.52 0.16 0  0.54 0.16 0  0.5600000000000001 0.16 0  0.58 0.16 0  0.6 0.16 0  0.62 0.16 0  0.64 0.16 0  0.66 0.16 0  0.68 0.16 0  0.7 0.16 0  0.72 0.16 0  0.74 0.16 0  0.76 0.16 0  0.78 0.16 0  0.8 0.16 0  0.82 0.16 0  0.84 0.16 0  0.86 0.16 0  0.88 0.16 0  0.9 0.16 0  0.92 0.16 0  0.9399999999999999 0.16 0  0.96 0.16 0  0.98 0.16 0  1 0.16 0  0 0.18 0  0.02 0.18 0  0.04 0.18 0  0.06 0.18 0  0.08 0.18 0  0.1 0.18 0  0.12 0.18 0  0.14 0.18 0  0.16 0.18 0  0.18 0.18 0  0.2 0.18 0  0.22 0.18 0  0.24 0.18 0  0.26 0.18 0  0.28 0.18 0  0.3 0.18 0  0.32 0.18 0  0.34 0.18 0  0.36 0.18 0  0.38 0.18 0  0.4 0.18 0  0.42 0.18 0  0.44 0.18 0  0.46 0.18 0  0.48 0.18 0  0.5 0.18 0  0.52 0.18 0  0.54 0.18 0  0.5600000000000001 0.18 0  0.58 0.18 0  0.6 0.18 0  0.62 0.18 0  0.64 0.18 0  0.66 0.18 0  0.68 0.18 0  0.7 0.18 0  0.72 0.18 0  0.74 0.18 0  0.76 0.18 0  0.78 0.18 0  0.8 0.18 0  0.82 0.18 0  0.84 0.18 0  0.86 0.18 0  0.88 0.18 0  0.9 0.18 0  0.92 0.18 0  0.9399999999999999 0.18 0  0.96 0.18 0  0.98 0.18 0  1 0.18 0  0 0.2 0  0.02 0.2 0  0.04 0.2 0  0.06 0.2 0  0.08 0.2 0  0.1 0.2 0  0.12 0.2 0  0.14 0.2 0  0.16 0.2 0  0.18 0.2 0  0.2 0.2 0  0.22 0.2 0  0.24 0.2 0  0.26 0.2 0  0.28 0.2 0  0.3 0.2 0  0.32 0.2 0  0.34 0.2 0  0.36 0.2 0  0.38 0.2 0  0.4 0.2 0  0.42 0.2 0  0.44 0.2 0  0.46 0.2 0  0.48 0.2 0  0.5 0.2 0  0.52 0.2 0  0.54 0.2 0  0.5600000000000001 0.2 0  0.58 0.2 0  0.6 0.2 0  0.62 0.2 0  0.64 0.2 0  0.66 0.2 0  0.68 0.2 0  0.7 0.2 0  0.72 0.2 0  0.74 0.2 0  0.76 0.2 0  0.78 0.2 0  0.8 0.2 0  0.82 0.2 0  0.84 0.2 0  0.86 0.2 0  0.88 0.2 0  0.9 0.2 0  0.92 0.2 0  0.9399999999999999 0.2 0  0.96 0.2 0  0.98 0.2 0  1 0.2 0  0 0.22 0  0.02 0.22 0  0.04 0.22 0  0.06 0.22 0  0.08 0.22 0  0.1 0.22 0  0.12 0.22 0  0.14 0.22 0  0.16 0.22 0  0.18 0.22 0  0.2 0.22 0  0.22 0.22 0  0.24 0.22 0  0.26 0.22 0  0.28 0.22 0  0.3 0.22 0  0.32 0.22 0  0.34 0.22 0  0.36 0.22 0  0.38 0.22 0  0.4 0.22 0  0.42 0.22 0  0.44 0.22 0  0.46 0.22 0  0.48 0.22 0  0.5 0.22 0  0.52 0.22 0  0.54 0.22 0  0.5600000000000001 0.22 0  0.58 0.22 0  0.6 0.22 0  0.62 0.22 0  0.64 0.22 0  0.66 0.22 0  0.68 0.22 0  0.7 0.22 0  0.72 0.22 0  0.74 0.22 0  0.76 0.22 0  0.78 0.22 0  0.8 0.22 0  0.82 0.22 0  0.84 0.22 0  0.86 0.22 0  0.88 0.22 0  0.9 0.22 0  0.92 0.22 0  0.9399999999999999 0.22 0  0.96 0.22 0  0.98 0.22 0  1 0.22 0  0 0.24 0  0.02 0.24 0  0.04 0.24 0  0.06 0.24 0  0.08 0.24 0  0.1 0.24 0  0.12 0.24 0  0.14 0.24 0  0.16 0.24 0  0.18 0.24 0  0.2 0.24 0  0.22 0.24 0  0.24 0.24 0  0.26 0.24 0  0.28 0.24 0  0.3 0.24 0  0.32 0.24 0  0.34 0.24 0  0.36 0.24 0  0.38 0.24 0  0.4 0.24 0  0.42 0.24 0  0.44 0.24 0  0.46 0.24 0  0.48 0.24 0  0.5 0.24 0  0.52 0.24 0  0.54 0.24 0  0.5600000000000001 0.24 0  0.58 0.24 0  0.6 0.24 0  0.62 0.24 0  0.64 0.24 0  0.66 0.24 0  0.68 0.24 0  0.7 0.24 0  0.72 0.24 0  0.74 0.24 0  0.76 0.24 0  0.78 0.24 0  0.8 0.24 0  0.82 0.24 0  0.84 0.24 0  0.86 0.24 0  0.88 0.24 0  0.9 0.24 0  0.92 0.24 0  0.9399999999999999 0.24 0  0.96 0.24 0  0.98 0.24 0  1 0.24 0  0 0.26 0  0.02 0.26 0  0.04 0.26 0  0.06 0.26 0  0.08 0.26 0  0.1 0.26 0  0.12 0.26 0  0.14 0.26 0  0.16 0.26 0  0.18 0.26 0  0.2 0.26 0  0.22 0.26 0  0.24 0.26 0  0.26 0.26 0  0.28 0.26 0  0.3 0.26 0  0.32 0.26 0  0.34 0.26 0  0.36 0.26 0  0.38 0.26 0  0.4 0.26 0  0.42 0.26 0  0.44 0.26 0  0.46 0.26 0  0.48 0.26 0  0.5 0.26 0  0.52 0.26 0  0.54 0.26 0  0.5600000000000001 0.26 0  0.58 0.26 0  0.6 0.26 0  0.62 0.26 0  0.64 0.26 0  0.66 0.26 0  0.68 0.26 0  0.7 0.26 0  0.72 0.26 0  0.74 0.26 0  0.76 0.26 0  0.78 0.26 0  0.8 0.26 0  0.82 0.26 0  0.84 0.26 0  0.86 0.26 0  0.88 0.26 0  0.9 0.26 0  0.92 0.26 0  0.9399999999999999 0.26 0  0.96 0.26 0  0.98 0.26 0  1 0.26 0  0 0.28 0  0.02 0.28 0  0.04 0.28 0  0.06 0.28 0  0.08 0.28 0  0.1 0.28 0  0.12 0.28 0  0.14 0.28 0  0.16 0.28 0  0.18 0.28 0  0.2 0.28 0  0.22 0.28 0  0.24 0.28 0  0.26 0.28 0  0.28 0.28 0  0.3 0.28 0  0.32 0.28 0  0.34 0.28 0  0.36 0.28 0  0.38 0.28 0  0.4 0.28 0  0.42 0.28 0  0.44 0.28 0  0.46 0.28 0  0.48 0.28 0  0.5 0.28 0  0.52 0.28 0  0.54 0.28 0  0.5600000000000001 0.28 0  0.58 0.28 0  0.6 0.28 0  0.62 0.28 0  0.64 0.28 0  0.66 0.28 0  0.68 0.28 0  0.7 0.28 0  0.72 0.28 0  0.74 0.28 0  0.76 0.28 0  0.78 0.28 0  0.8 0.28 0  0.82 0.28 0  0.84 0.28 0  0.86 0.28
[...]
<PointData  Vectors="f_484"> 
<DataArray  type="Float64"  Name="f_484"  NumberOfComponents="3" format="ascii">-5.1681436666154912e-01 -2.3580652050580350e-05 0.0000000000000000e+00  -5.1702525680325639e-01 1.0340784380293175e-04 0.0000000000000000e+00  -5.1754266901478119e-01 2.0067315555355922e-04 0.0000000000000000e+00  -5.1844651562424182e-01 3.0166530040045593e-04 0.0000000000000000e+00  -5.1976885853636567e-01 4.0403297839823279e-04 0.0000000000000000e+00  -5.2154313305619515e-01 5.0822798673906533e-04 0.0000000000000000e+00  -5.2380560461258996e-01 6.1486779884840741e-04 0.0000000000000000e+00  -5.2659404758976458e-01 7.2446753623062275e-04 0.0000000000000000e+00  -5.2994803745880581e-01 8.3758774310126866e-04 0.0000000000000000e+00  -5.3390899907117173e-01 9.5481346356049619e-04 0.0000000000000000e+00  -5.3852029013747971e-01 1.0767617781556136e-03 0.0000000000000000e+00  -5.4382730616552211e-01 1.2040872967478899e-03 0.0000000000000000e+00  -5.4987760323120305e-01 1.3374878702333388e-03 0.0000000000000000e+00  -5.5672104242136145e-01 1.4777111700085123e-03 0.0000000000000000e+00  -5.6440995848601583e-01 1.6255621428829994e-03 0.0000000000000000e+00  -5.7299935620396980e-01 1.7819115873666498e-03 0.0000000000000000e+00  -5.8254713875148489e-01 1.9477061023586203e-03 0.0000000000000000e+00  -5.9311437332599448e-01 2.1239797201390020e-03 0.0000000000000000e+00  -6.0476560047458794e-01 2.3118676113868461e-03 0.0000000000000000e+00  -6.1756919506904340e-01 2.5126223486835100e-03 0.0000000000000000e+00  -6.3159778875231332e-01 2.7276333447033541e-03 0.0000000000000000e+00  -6.4692876607211114e-01 2.9584502510890129e-03 0.0000000000000000e+00  -6.6364484957695591e-01 3.2068113289565655e-03 0.0000000000000000e+00  -6.8183479310539263e-01 3.4746781032859450e-03 0.0000000000000000e+00  -7.0159420764302283e-01 3.7642780182239109e-03 0.0000000000000000e+00  -7.2302655088922829e-01 4.0781573631666884e-03 0.0000000000000000e+00  -7.4624432065219815e-01 4.4192475003520517e-03 0.0000000000000000e+00  -7.7137050423517173e-01 4.7909484865761489e-03 0.0000000000000000e+00  -7.9854035231624254e-01 5.1972356815139136e-03 0.0000000000000000e+00  -8.2790356826884626e-01 5.6427970859605275e-03 0.0000000000000000e+00  -8.5962703511819405e-01 6.1332122844586345e-03 0.0000000000000000e+00  -8.9389824647005611e-01 6.6751885038496151e-03 0.0000000000000000e+00  -9.3092967112747216e-01 7.2768762956473840e-03 0.0000000000000000e+00  -9.7096437365797506e-01 7.9482981261252052e-03 0.0000000000000000e+00  -1.0142833512401725e+00 8.7019401382940429e-03 0.0000000000000000e+00  -1.0612152564866355e+00 9.5535848001702811e-03 0.0000000000000000e+00  -1.1121495056852182e+00 1.0523507871063955e-02 0.0000000000000000e+00  -1.1675542868416455e+00 1.1638241487943211e-02 0.0000000000000000e+00  -1.2280018890216582e+00 1.2933246945156887e-02 0.0000000000000000e+00  -1.2942050955615663e+00 1.4457100699493363e-02 0.0000000000000000e+00  -1.3670716938061582e+00 1.6278319571250595e-02 0.0000000000000000e+00  -1.4477865439985269e+00 1.8497173148002297e-02 0.0000000000000000e+00  -1.5379508012116185e+00 2.1266891172839784e-02 0.0000000000000000e+00  -1.6397861892091246e+00 2.4837554226639469e-02 0.0000000000000000e+00  -1.7566667735580925e+00 2.9669447951794891e-02 0.0000000000000000e+00  -1.8933153617194445e+00 3.6605800552564918e-02 0.0000000000000000e+00  -2.0610053511268376e+00 4.8492833665587438e-02 0.0000000000000000e+00  -2.2675241864197551e+00 7.2148129883485304e-02 0.0000000000000000e+00  -2.5888625456586301e+00 1.3580571164500130e-01 0.0000000000000000e+00  -3.1158786538230405e+00 4.5897540967103018e-01 0.0000000000000000e+00  -3.9439397781550820e+00 1.3368177029798136e+00 0.0000000000000000e+00  -5.1658736617526446e-01 7.2611920539918984e-06 0.0000000000000000e+00  -5.1686713325946931e-01 3.4272130938827134e-04 0.0000000000000000e+00  -5.1736507036162516e-01 6.6155505582527645e-04 0.0000000000000000e+00  -5.1827027606086296e-01 9.9072817380670315e-04 0.0000000000000000e+00  -5.1958951384451135e-01 1.3227266347735980e-03 0.0000000000000000e+00  -5.2136009499567082e-01 1.6610999388890478e-03 0.0000000000000000e+00  -5.2361797659803178e-01 2.0072616167175939e-03 0.0000000000000000e+00  -5.2640087415008852e-01 2.3629326388739606e-03 0.0000000000000000e+00  -5.2974833645342578e-01 2.7298986579463772e-03 0.0000000000000000e+00  -5.3370173478957728e-01 3.1100266393293045e-03 0.0000000000000000e+00  -5.3830436765223555e-01 3.5052884768041787e-03 0.0000000000000000e+00  -5.4360156153569072e-01 3.9177759216815246e-03 0.0000000000000000e+00  -5.4964079288117906e-01 4.3497195108868165e-03 0.0000000000000000e+00  -5.5647183119087773e-01 4.8035095196317656e-03 0.0000000000000000e+00  -5.6414690594359462e-01 5.2817198256573210e-03 0.0000000000000000e+00  -5.7272090085262506e-01 5.7871353653951877e-03 0.0000000000000000e+00  -5.8225157964475505e-01 6.3227839834292940e-03 0.0000000000000000e+00  -5.9279984850447698e-01 6.8919736743475943e-03 0.0000000000000000e+00  -6.0443006148595613e-01 7.4983364555334005e-03 0.0000000000000000e+00  -6.1721037664400413e-01 8.1458804264109251e-03 0.0000000000000000e+00  -6.3121317245778474e-01 8.8390519819701342e-03 0.0000000000000000e+00  -6.4651553643349424e-01 9.5828106915522224e-03 0.0000000000000000e+00  -6.6319984072361460e-01 1.0382720071077050e-02 0.0000000000000000e+00  -6.8135442340550334e-01 1.1245058435105733e-02 0.0000000000000000e+00  -7.0107439900097346e-01 1.2176955305745182e-02 0.0000000000000000e+00  -7.2246262829091801e-01 1.3186560612390211e-02 0.0000000000000000e+00  -7.4563088604153360e-01 1.4283256335062781e-02 0.0000000000000000e+00  -7.7070127669867727e-01 1.5477923613058190e-02 0.0000000000000000e+00  -7.9780796356318395e-01 1.6783283095754241e-02 0.0000000000000000e+00  -8.2709929808704186e-01 1.8214333118263211e-02 0.0000000000000000e+00  -8.5874046518022162e-01 1.9788920174859771e-02 0.0000000000000000e+00  -8.9291680147594688e-01 2.1528490778235123e-02 0.0000000000000000e+00  -9.2983800201060551e-01 2.3459095784175387e-02 0.0000000000000000e+00  -9.6974351550547200e-01 2.5612752022915859e-02 0.0000000000000000e+00  -1.0129095534406118e+00 2.8029319066782854e-02 0.0000000000000000e+00  -1.0596583258591845e+00 3.0759134197056042e-02 0.0000000000000000e+00  -1.1103704062590842e+00 3.3866789538331242e-02 0.0000000000000000e+00  -1.1655015797604260e+00 3.7436675662239099e-02 0.0000000000000000e+00  -1.2256062733470114e+00 4.1581340437069236e-02 0.0000000000000000e+00  -1.2913708443368324e+00 4.6454490496662268e-02 0.0000000000000000e+00  -1.3636622858956973e+00 5.2271977329950502e-02 0.0000000000000000e+00  -1.4436008436884473e+00 5.9347102910220530e-02 0.0000000000000000e+00  -1.5326749739104986e+00 6.8153217943405259e-02 0.0000000000000000e+00  -1.6329190071437398e+00 7.9442626498032284e-02 0.0000000000000000e+00  -1.7472314294809801e+00 9.4477523984838066e-02 0.0000000000000000e+00  -1.8798624353848055e+00 1.1557760305172776e-01 0.0000000000000000e+00  -2.0375325727617448e+00 1.4732268879919527e-01 0.0000000000000000e+00  -2.2284613136409566e+00 1.9876534733343826e-01 0.0000000000000000e+00  -2.4809741867908270e+00 2.9831160484517472e-01 0.0000000000000000e+00  -2.7122919854619574e+00 4.7003905404201030e-01 0.0000000000000000e+00  -3.2092354271808046e+00 8.6712252303596038e-01 0.0000000000000000e+00  -5.1595303108620005e-01 -9.5966366862524057e-07 0.0000000000000000e+00  -5.1636066292387373e-01 7.0109701221798121e-04 0.0000000000000000e+00  -5.1682923609027820e-01 1.4131667206204242e-03 0.0000000000000000e+00  -5.1773453065824659e-01 2.1324756722287796e-03 0.0000000000000000e+00  -5.1904392313233394e-01 2.8602852594224720e-03 0.0000000000000000e+00  -5.2080350028514211e-01 3.6018163437444030e-03 0.0000000000000000e+00  -5.2304742637137247e-01 4.3600882450366904e-03 0.0000000000000000e+00  -5.2581357127127737e-01 5.1389403821722867e-03 0.0000000000000000e+00  -5.2914133098314708e-01 5.9422275558344171e-03 0.0000000000000000e+00  -5.3307192217753196e-01 6.7740144765433656e-03 0.0000000000000000e+00  -5.3764846466512972e-01 7.6385878261851252e-03 0.0000000000000000e+00  -5.4291607669724717e-01 8.5404933056127900e-03 0.0000000000000000e+00  -5.4892199503315731e-01 9.4845760505368384e-03 0.0000000000000000e+00  -5.5571571359979410e-01 1.0476025504139846e-02 0.0000000000000000e+00  -5.6334914527225655e-01 1.1520426663440098e-02 0.0000000000000000e+00  -5.7187680979899191e-01 1.2623818926140836e-02 0.0000000000000000e+00  -5.8135605182092687e-01 1.3792764275538048e-02 0.0000000000000000e+00  -5.9184729379682643e-01 1.5034426901333268e-02 0.0000000000000000e+00  -6.0341432969861719e-01 1.6356666862608497e-02 0.0000000000000000e+00  -6.1612466665872911e-01 1.7768151059414126e-02 0.0000000000000000e+00  -6.3004992340015964e-01 1.9278485637897656e-02 0.0000000000000000e+00  -6.4526629635658206e-01 2.0898375077472366e-02 0.0000000000000000e+00  -6.6185510702305461e-01 2.2639814691453122e-02 0.0000000000000000e+00  -6.7990344744461151e-01 2.4516325243727096e-02 0.0000000000000000e+00  -6.9950494507969607e-01 2.6543241029844733e-02 0.0000000000000000e+00  -7.2076067389275633e-01 2.8738066357142430e-02 0.0000000000000000e+00  -7.4378024587550473e-01 3.1120920269695099e-02 0.0000000000000000e+00  -7.6868312688258000e-01 3.3715096168998551e-02 0.0000000000000000e+00  -7.9560023355937659e-01 3.6547772525253569e-02 0.0000000000000000e+00  -8.2467588546201487e-01 3.9650924438677591e-02 0.0000000000000000e+00  -8.5607020997919692e-01 4.3062505365024810e-02 0.0000000000000000e+00  -8.8996212990856161e-01 4.6827996949417756e-02 0.0000000000000000e+00  -9.2655310824842163e-01 5.1002467535484090e-02 0.0000000000000000e+00  -9.6607188742146000e-01 5.5653344537252743e-02 0.0000000000000000e+00  -1.0087805490438611e+00 6.0864205790704555e-02 0.0000000000000000e+00  -1.0549823473525564e+00 6.6740052911263795e-02 0.0000000000000000e+00  -1.1050319543558655e+00 7.3414785193969448e-02 0.0000000000000000e+00  -1.1593490183562245e+00 8.1062016810816748e-02 0.0000000000000000e+00  -1.2184363423269207e+00 8.9911104497733638e-02 0.0000000000000000e+00  -1.2829044846935347e+00 1.0027152875543097e-01 0.0000000000000000e+00  -1.3535056044829574e+00 1.1257109011479198e-01 0.0000000000000000e+00  -1.4311792686897111e+00 1.2741772725142597e-01 0.0000000000000000e+00  -1.5171180062855416e+00 1.4570337753842610e-01 0.0000000000000000e+00  -1.6128401302754698e+00 1.6878412721333150e-01 0.0000000000000000e+00  -1.7203288078594814e+00 1.9880918948157880e-01 0.0000000000000000e+00  -1.8419189282850008e+00 2.3932954174991647e-01 0.0000000000000000e+00  -1.9808058308107312e+00 2.9639684210475892e-01 0.0000000000000000e+00  -2.1375942614211181e+00 3.8103663978820268e-01 0.0000000000000000e+00  -2.3154969583146356e+00 5.1096119629136949e-01 0.0000000000000000e+00  -2.4688799459234407e+00 7.1396822763465495e-01 0.0000000000000000e+00  -2.6848863029392191e+00 1.0508179127753425e+00 0.0000000000000000e+00  -5.1497829924790672e-01 3.2796424534409218e-07 0.0000000000000000e+00  -5.1551269490776075e-01 1.0496337020115933e-03 0.0000000000000000e+00  -5.1593946779265731e-01 2.1025892396947772e-03 0.0000000000000000e+00  -5.1684320490130964e-01 3.1638531670545597e-03 0.0000000000000000e+00  -5.1813637591248152e-01 4.2398909765546562e-03 0.0000000000000000e+00  -5.1987779648421761e-01 5.3356903347102956e-03 0.0000000000000000e+00  -5.2209854181092008e-01 6.4563098470972304e-03 0.0000000000000000e+00  -5.2483693801898623e-01 7.6073307629068512e-03 0.0000000000000000e+00  -5.2813204534379954e-01 8.7944173352631164e-03 0.0000000000000000e+00  -5.3202484424493413e-01 1.0023559978503656e-02 0.0000000000000000e+00  -5.3655815621211911e-01 1.1301067477781129e-02 0.0000000000000000e+00  -5.4177675671745895e-01 1.2633630232466593e-02 0.0000000000000000e+00  -5.4772748802984195e-01 1.4028376577722225e-02 0.0000000000000000e+00  -5.5445939087635221e-01 1.5492938159962305e-02 0.0000000000000000e+00  -5.6202385792325937e-01 1.7035524197683519e-02 0.0000000000000000e+00  -5.7047481141741940e-01 1.8665006676804718e-02 0.0000000000000000e+00  -5.7986890866453011e-01 2.0391018935945707e-02 0.0000000000000000e+00  -5.9026577959295823e-01 2.2224070596421709e-02 0.0000000000000000e+00  -6.0172830157543533e-01 2.4175682521346699e-02 0.0000000000000000e+00  -6.1432291779192738e-01 2.6258546405242902e-02 0.0000000000000000e+00  -6.2812000679270286e-01 2.8486714786994643e-02 0.0000000000000000e+00  -6.4319431263503546e-01 3.0875828833181244e-02 0.0000000000000000e+00  -6.5962544710774773e-01 3.3443393275766148e-02 0.0000000000000000e+00  -6.7749847825215492e-01 3.6209110584403119e-02 0.0000000000000000e+00  -6.9690462278998355e-01 3.9195290049638516e-02 0.0000000000000000e+00  -7.1794206439006869e-01 4.2427352293651369e-02 0.0000000000000000e+00  -7.4071692522270827e-01 4.5934456306136885e-02 0.0000000000000000e+00  -7.6534442532203650e-01 4.9750285142133650e-02 0.0000000000000000e+00  -7.9195027338551205e-01 5.3914038975509795e-02 0.0000000000000000e+00  -8.2067234440666836e-01 5.8471701851518613e-02 0.0000000000000000e+00  -8.5166271477340005e-01 6.3477673607895413e-02 0.0000000000000000e+00  -8.8509014518385609e-01 6.8996894686465929e-02 0.0000000000000000e+00  -9.2114312716363667e-01 7.5107644618835664e-02 0.0000000000000000e+00  -9.6003364141097447e-01 8.1905273824351546e-02 0.0000000000000000e+00  -1.0020018167877305e+00 8.9507247440982277e-02 0.0000000000000000e+00  -1.0473217270277166e+00 9.8060062800559969e-02 0.0000000000000000e+00  -1.0963086155180155e+00 1.0774888800795664e-01 0.0000000000000000e+00  -1.1493278786865138e+00 1.1881122380656280e-01 0.0000000000000000e+00  -1.2068061477654031e+00 1.3155662710563695e-01 0.0000000000000000e+00  -1.2692446187374158e+00 1.4639574448294310e-01 0.0000000000000000e+00  -1.3372344587762393e+00 1.6388391742961003e-01 0.0000000000000000e+00  -1.4114719438725487e+00 1.8478798714962161e-01 0.0000000000000000e+00  -1.4927702111325778e+00 2.1019042380021663e-01 0.0000000000000000e+00  -1.5820437674637642e+00 2.4165368168609722e-01 0.0000000000000000e+00  -1.6802672104603253e+00 2.8147984883185473e-01 0.0000000000000000e+00  -1.7881575318430027e+00 3.3310187548873094e-01 0.0000000000000000e+00  -1.9060852661223258e+00 4.0167234669679353e-01 0.0000000000000000e+00  -2.0306720290223659e+00 4.9449797576700860e-01 0.0000000000000000e+00  -2.1608607284586152e+00 6.2113307281308394e-01 0.0000000000000000e+00  -2.2556271013963323e+00 7.9089063916536229e-01 0.0000000000000000e+00  -2.3894244225988674e+00 9.9062794385773578e-01 0.0000000000000000e+00  -5.1365935932299911e-01 3.3884985059104729e-07 0.0000000000000000e+00  -5.1431599328308819e-01 1.3919028720666964e-03 0.0000000000000000e+00  -5.1470063202442651e-01 2.7904054743963956e-03 0.0000000000000000e+00  -5.1559990572442449e-01 4.2019377780587470e-03 0.0000000000000000e+00  -5.1687073633037561e-01 5.6329057620894121e-03 0.0000000000000000e+00  -5.1858687264807879e-01 7.0898305586087965e-03 0.0000000000000000e+00  -5.2077535081685744e-01 8.5797716417933545e-03 0.0000000000000000e+00  -5.2347516949830186e-01 1.0109966089615655e-02 0.0000000000000000e+00  -5.2672487506636245e-01 1.1687943863974572e-02 0.0000000000000000e+00  -5.3056514097494811e-01 1.3321629830614787e-02 0.0000000000000000e+00  -5.3503837098756657e-01 1.5019369662097277e-02 0.0000000000000000e+00  -5.4018886967626134e-01 1.6790010660439152e-02 0.0000000000000000e+00  -5.4606293636344749e-01 1.8642973103340420e-02 0.0000000000000000e+00  -5.5270898909219368e-01 2.0588335536214676e-02 0.0000000000000000e+00  -5.6017770664552380e-01 2.2636930659873718e-02 0.0000000000000000e+00  -5.6852219239217061e-01 2.4800455321027540e-02 0.0000000000000000e+00  -5.7779816296803488e-01 2.7091597483295718e-02 0.0000000000000000e+00  -5.8806416531454375e-01 2.9524183893041827e-02 0.0000000000000000e+00  -5.9938182635159254e-01 3.2113353026305594e-02 0.0000000000000000e+00  -6.1181614040281251e-01 3.4875759023609926e-02 0.0000000000000000e+00  -6.2543580052489289e-01 3.7829813766145921e-02 0.0000000000000000e+00  -6.4031358114967485e-01 4.0995976119278410e-02 0.0000000000000000e+00  -6.5652678097690675e-01 4.4397099809142804e-02 0.0000000000000000e+00  -6.7415773691601211e-01 4.8058854598757784e-02 0.0000000000000000e+00  -6.9329442214195280e-01 5.2010239664921000e-02 0.0000000000000000e+00  -7.1403114407915114e-01 5.6284213720022000e-02 0.0000000000000000e+00  -7.3646936145238684e-01 6.0918474012724197e-02 0.0000000000000000e+00  -7.6071864352267138e-01 6.5956426638217533e-02 0.0000000000000000e+00  -7.8689779932452997e-01 7.1448404693360293e-02 0.0000000000000000e+00  -8.1513621012460913e-01 7.7453210323603430e-02 0.0000000000000000e+00  -8.4557540426265965e-01 8.4040083979082053e-02 0.0000000000000000e+00  -8.7837091950695056e-01 9.1291242716127846e-02 0.0000000000000000e+00  -9.1369450288535514e-01 9.9305184377912553e-02 0.0000000000000000e+00  -9.5173669911192404e-01 1.0820103385998713e-01 0.0000000000000000e+00  -9.9270987118592979e-01 1.1812432342081752e-01 0.0000000000000000e+00  -1.0368516700133981e+00 1.2925476944198799e-01 0.0000000000000000e+00  -1.0844289050083509e+00 1.4181686102718249e-01 0.0000000000000000e+00  -1.1357416203349588e+00 1.5609445316496140e-01 0.0000000000000000e+00  -1.1911268910109396e+00 1.7245111973434976e-01 0.0000000000000000e+00  -1.2509611940161229e+00 1.9135885105287567e-01 0.0000000000000000e+00  -1.3156591516731071e+00 2.1343887003784218e-01 0.0000000000000000e+00  -1.3856632721736011e+00 2.3951991615082269e-01 0.0000000000000000e+00  -1.4614172842423916e+00 2.7072112005867432e-01 0.0000000000000000e+00  -1.5432948786942458e+00 3.0856732570558409e-01 0.0000000000000000e+00  -1.6314832178561602e+00 3.5514074982780225e-01 0.0000000000000000e+00  -1.7256101295905109e+00 4.1325571106683118e-01 0.0000000000000000e+00  -1.8245802805389844e+00 4.8657845972284919e-01 0.0000000000000000e+00  -1.9241407456864770e+00 5.7946344187531562e-01 0.0000000000000000e+00  -2.0218388979251287e+00 6.9620345230916358e-01 0.0000000000000000e+00  -2.0890796741222699e+00 8.3706210593639141e-01 0.0000000000000000e+00  -2.1873762489132393e+00 9.9971840598944550e-01 0.0000000000000000e+00  -5.1200267578607983e-01 3.9229369890428723e-07 0.0000000000000000e+00  -5.1277906682337493e-01 1.7284558763124896e-03 0.0000000000000000e+00  -5.1311980447128291e-01 3.4649355314357185e-03 0.0000000000000000e+00  -5.1401009360035788e-01 5.2169707054474102e-03 0.0000000000000000e+00  -5.1525308356251287e-01 6.9928638039629875e-03 0.0000000000000000e+00  -5.1693689048452218e-01 8.8009949409475485e-03 0.0000000000000000e+00  -5.1908425711462325e-01 1.0649990135847831e-02 0.0000000000000000e+00  -5.2173493154269035e-01 1.2548761310113005e-02 0.0000000000000000e+00  -5.2492680595688690e-01 1.4506633242355082e-02 0.0000000000000000e+00  -5.2870017521400614e-01 1.6533380771388894e-02 0.0000000000000000e+00  -5.3309691206419940e-01 1.8639303792294146e-02 0.0000000000000000e+00  -5.3816073032670797e-01 2.0835312370237384e-02 0.0000000000000000e+00  -5.4393724703422219e-01 2.3133014568912067e-02 0.0000000000000000e+00  -5.5047409955772608e-01 2.5544818926838700e-02 0.0000000000000000e+00  -5.5782107300117356e-01 2.8084049317493330e-02 0.0000000000000000e+00  -5.6603024740403640e-01 3.0765076531495156e-02 0.0000000000000000e+00  -5.7515616605647890e-01 3.3603469679490440e-02 0.0000000000000000e+00  -5.8525602775820185e-01 3.6616171736628490e-02 0.0000000000000000e+00  -5.9638990623633492e-01 3.9821704449860357e-02 0.0000000000000000e+00  -6.0862100049250845e-01 4.3240409089240046e-02 0.0000000000000000e+00  -6.2201592050217158e-01 4.6894731118848905e-02 0.0000000000000000e+00  -6.3664501343767088e-01 5.0809558909287407e-02 0.0000000000000000e+00  -6.5258273644277898e-01 5.5012629255825618e-02 0.0000000000000000e+00  -6.6990808294486315e-01 5.9535015898297655e-02 0.0000000000000000e+00  -6.8870507053789942e-01 6.4411721724170354e-02 0.0000000000000000e+00  -7.09063