<?xml version="1.0"?>
<VTKFile type="UnstructuredGrid"  version="0.1"  >
<UnstructuredGrid>
<Piece  NumberOfPoints="2601" NumberOfCells="5000">
<Points>
<DataArray  type="Float64"  NumberOfComponents="3"  format="ascii">0 0 0  0.02 0 0  0.04 0 0  0.06 0 0  0.08 0 0  0.1 0 0  0.12 0 0  0.14 0 0  0.16 0 0  0.18 0 0  0.2 0 0  0.22 0 0  0.24 0 0  0.26 0 0  0.28 0 0  0.3 0 0  0.32 0 0  0.34 0 0  0.36 0 0  0.38 0 0  0.4 0 0  0.42 0 0  0.44 0 0  0.46 0 0  0.48 0 0  0.5 0 0  0.52 0 0  0.54 0 0  0.5600000000000001 0 0  0.58 0 0  0.6 0 0  0.62 0 0  0.64 0 0  0.66 0 0  0.68 0 0  0.7 0 0  0.72 0 0  0.74 0 0  0.76 0 0  0.78 0 0  0.8 0 0  0.82 0 0  0.84 0 0  0.86 0 0  0.88 0 0  0.9 0 0  0.92 0 0  0.9399999999999999 0 0  0.96 0 0  0.98 0 0  1 0 0  0 0.02 0  0.02 0.02 0  0.04 0.02 0  0.06 0.02 0  0.08 0.02 0  0.1 0.02 0  0.12 0.02 0  0.14 0.02 0  0.16 0.02 0  0.18 0.02 0  0.2 0.02 0  0.22 0.02 0  0.24 0.02 0  0.26 0.02 0  0.28 0.02 0  0.3 0.02 0  0.32 0.02 0  0.34 0.02 0  0.36 0.02 0  0.38 0.02 0  0.4 0.02 0  0.42 0.02 0  0.44 0.02 0  0.46 0.02 0  0.48 0.02 0  0.5 0.02 0  0.52 0.02 0  0.54 0.02 0  0.5600000000000001 0.02 0  0.58 0.02 0  0.6 0.02 0  0.62 0.02 0  0.64 0.02 0  0.66 0.02 0  0.68 0.02 0  0.7 0.02 0  0.72 0.02 0  0.74 0.02 0  0.76 0.02 0  0.78 0.02 0  0.8 0.02 0  0.82 0.02 0  0.84 0.02 0  0.86 0.02 0  0.88 0.02 0  0.9 0.02 0  0.92 0.02 0  0.9399999999999999 0.02 0  0.96 0.02 0  0.98 0.02 0  1 0.02 0  0 0.04 0  0.02 0.04 0  0.04 0.04 0  0.06 0.04 0  0.08 0.04 0  0.1 0.04 0  0.12 0.04 0  0.14 0.04 0  0.16 0.04 0  0.18 0.04 0  0.2 0.04 0  0.22 0.04 0  0.24 0.04 0  0.26 0.04 0  0.28 0.04 0  0.3 0.04 0  0.32 0.04 0  0.34 0.04 0  0.36 0.04 0  0.38 0.04 0  0.4 0.04 0  0.42 0.04 0  0.44 0.04 0  0.46 0.04 0  0.48 0.04 0  0.5 0.04 0  0.52 0.04 0  0.54 0.04 0  0.5600000000000001 0.04 0  0.58 0.04 0  0.6 0.04 0  0.62 0.04 0  0.64 0.04 0  0.66 0.04 0  0.68 0.04 0  0.7 0.04 0  0.72 0.04 0  0.74 0.04 0  0.76 0.04 0  0.78 0.04 0  0.8 0.04 0  0.82 0.04 0  0.84 0.04 0  0.86 0.04 0  0.88 0.04 0  0.9 0.04 0  0.92 0.04 0  0.9399999999999999 0.04 0  0.96 0.04 0  0.98 0.04 0  1 0.04 0  0 0.06 0  0.02 0.06 0  0.04 0.06 0  0.06 0.06 0  0.08 0.06 0  0.1 0.06 0  0.12 0.06 0  0.14 0.06 0  0.16 0.06 0  0.18 0.06 0  0.2 0.06 0  0.22 0.06 0  0.24 0.06 0  0.26 0.06 0  0.28 0.06 0  0.3 0.06 0  0.32 0.06 0  0.34 0.06 0  0.36 0.06 0  0.38 0.06 0  0.4 0.06 0  0.42 0.06 0  0.44 0.06 0  0.46 0.06 0  0.48 0.06 0  0.5 0.06 0  0.52 0.06 0  0.54 0.06 0  0.5600000000000001 0.06 0  0.58 0.06 0  0.6 0.06 0  0.62 0.06 0  0.64 0.06 0  0.66 0.06 0  0.68 0.06 0  0.7 0.06 0  0.72 0.06 0  0.74 0.06 0  0.76 0.06 0  0.78 0.06 0  0.8 0.06 0  0.82 0.06 0  0.84 0.06 0  0.86 0.06 0  0.88 0.06 0  0.9 0.06 0  0.92 0.06 0  0.9399999999999999 0.06 0  0.96 0.06 0  0.98 0.06 0  1 0.06 0  0 0.08 0  0.02 0.08 0  0.04 0.08 0  0.06 0.08 0  0.08 0.08 0  0.1 0.08 0  0.12 0.08 0  0.14 0.08 0  0.16 0.08 0  0.18 0.08 0  0.2 0.08 0  0.22 0.08 0  0.24 0.08 0  0.26 0.08 0  0.28 0.08 0  0.3 0.08 0  0.32 0.08 0  0.34 0.08 0  0.36 0.08 0  0.38 0.08 0  0.4 0.08 0  0.42 0.08 0  0.44 0.08 0  0.46 0.08 0  0.48 0.08 0  0.5 0.08 0  0.52 0.08 0  0.54 0.08 0  0.5600000000000001 0.08 0  0.58 0.08 0  0.6 0.08 0  0.62 0.08 0  0.64 0.08 0  0.66 0.08 0  0.68 0.08 0  0.7 0.08 0  0.72 0.08 0  0.74 0.08 0  0.76 0.08 0  0.78 0.08 0  0.8 0.08 0  0.82 0.08 0  0.84 0.08 0  0.86 0.08 0  0.88 0.08 0  0.9 0.08 0  0.92 0.08 0  0.9399999999999999 0.08 0  0.96 0.08 0  0.98 0.08 0  1 0.08 0  0 0.1 0  0.02 0.1 0  0.04 0.1 0  0.06 0.1 0  0.08 0.1 0  0.1 0.1 0  0.12 0.1 0  0.14 0.1 0  0.16 0.1 0  0.18 0.1 0  0.2 0.1 0  0.22 0.1 0  0.24 0.1 0  0.26 0.1 0  0.28 0.1 0  0.3 0.1 0  0.32 0.1 0  0.34 0.1 0  0.36 0.1 0  0.38 0.1 0  0.4 0.1 0  0.42 0.1 0  0.44 0.1 0  0.46 0.1 0  0.48 0.1 0  0.5 0.1 0  0.52 0.1 0  0.54 0.1 0  0.5600000000000001 0.1 0  0.58 0.1 0  0.6 0.1 0  0.62 0.1 0  0.64 0.1 0  0.66 0.1 0  0.68 0.1 0  0.7 0.1 0  0.72 0.1 0  0.74 0.1 0  0.76 0.1 0  0.78 0.1 0  0.8 0.1 0  0.82 0.1 0  0.84 0.1 0  0.86 0.1 0  0.88 0.1 0  0.9 0.1 0  0.92 0.1 0  0.9399999999999999 0.1 0  0.96 0.1 0  0.98 0.1 0  1 0.1 0  0 0.12 0  0.02 0.12 0  0.04 0.12 0  0.06 0.12 0  0.08 0.12 0  0.1 0.12 0  0.12 0.12 0  0.14 0.12 0  0.16 0.12 0  0.18 0.12 0  0.2 0.12 0  0.22 0.12 0  0.24 0.12 0  0.26 0.12 0  0.28 0.12 0  0.3 0.12 0  0.32 0.12 0  0.34 0.12 0  0.36 0.12 0  0.38 0.12 0  0.4 0.12 0  0.42 0.12 0  0.44 0.12 0  0.46 0.12 0  0.48 0.12 0  0.5 0.12 0  0.52 0.12 0  0.54 0.12 0  0.5600000000000001 0.12 0  0.58 0.12 0  0.6 0.12 0  0.62 0.12 0  0.64 0.12 0  0.66 0.12 0  0.68 0.12 0  0.7 0.12 0  0.72 0.12 0  0.74 0.12 0  0.76 0.12 0  0.78 0.12 0  0.8 0.12 0  0.82 0.12 0  0.84 0.12 0  0.86 0.12 0  0.88 0.12 0  0.9 0.12 0  0.92 0.12 0  0.9399999999999999 0.12 0  0.96 0.12 0  0.98 0.12 0  1 0.12 0  0 0.14 0  0.02 0.14 0  0.04 0.14 0  0.06 0.14 0  0.08 0.14 0  0.1 0.14 0  0.12 0.14 0  0.14 0.14 0  0.16 0.14 0  0.18 0.14 0  0.2 0.14 0  0.22 0.14 0  0.24 0.14 0  0.26 0.14 0  0.28 0.14 0  0.3 0.14 0  0.32 0.14 0  0.34 0.14 0  0.36 0.14 0  0.38 0.14 0  0.4 0.14 0  0.42 0.14 0  0.44 0.14 0  0.46 0.14 0  0.48 0.14 0  0.5 0.14 0  0.52 0.14 0  0.54 0.14 0  0.5600000000000001 0.14 0  0.58 0.14 0  0.6 0.14 0  0.62 0.14 0  0.64 0.14 0  0.66 0.14 0  0.68 0.14 0  0.7 0.14 0  0.72 0.14 0  0.74 0.14 0  0.76 0.14 0  0.78 0.14 0  0.8 0.14 0  0.82 0.14 0  0.84 0.14 0  0.86 0.14 0  0.88 0.14 0  0.9 0.14 0  0.92 0.14 0  0.9399999999999999 0.14 0  0.96 0.14 0  0.98 0.14 0  1 0.14 0  0 0.16 0  0.02 0.16 0  0.04 0.16 0  0.06 0.16 0  0.08 0.16 0  0.1 0.16 0  0.12 0.16 0  0.14 0.16 0  0.16 0.16 0  0.18 0.16 0  0.2 0.16 0  0.22 0.16 0  0.24 0.16 0  0.26 0.16 0  0.28 0.16 0  0.3 0.16 0  0.32 0.16 0  0.34 0.16 0  0.36 0.16 0  0.38 0.16 0  0.4 0.16 0  0.42 0.16 0  0.44 0.16 0  0.46 0.16 0  0.48 0.16 0  0.5 0.16 0  0.52 0.16 0  0.54 0.16 0  0.5600000000000001 0.16 0  0.58 0.16 0  0.6 0.16 0  0.62 0.16 0  0.64 0.16 0  0.66 0.16 0  0.68 0.16 0  0.7 0.16 0  0.72 0.16 0  0.74 0.16 0  0.76 0.16 0  0.78 0.16 0  0.8 0.16 0  0.82 0.16 0  0.84 0.16 0  0.86 0.16 0  0.88 0.16 0  0.9 0.16 0  0.92 0.16 0  0.9399999999999999 0.16 0  0.96 0.16 0  0.98 0.16 0  1 0.16 0  0 0.18 0  0.02 0.18 0  0.04 0.18 0  0.06 0.18 0  0.08 0.18 0  0.1 0.18 0  0.12 0.18 0  0.14 0.18 0  0.16 0.18 0  0.18 0.18 0  0.2 0.18 0  0.22 0.18 0  0.24 0.18 0  0.26 0.18 0  0.28 0.18 0  0.3 0.18 0  0.32 0.18 0  0.34 0.18 0  0.36 0.18 0  0.38 0.18 0  0.4 0.18 0  0.42 0.18 0  0.44 0.18 0  0.46 0.18 0  0.48 0.18 0  0.5 0.18 0  0.52 0.18 0  0.54 0.18 0  0.5600000000000001 0.18 0  0.58 0.18 0  0.6 0.18 0  0.62 0.18 0  0.64 0.18 0  0.66 0.18 0  0.68 0.18 0  0.7 0.18 0  0.72 0.18 0  0.74 0.18 0  0.76 0.18 0  0.78 0.18 0  0.8 0.18 0  0.82 0.18 0  0.84 0.18 0  0.86 0.18 0  0.88 0.18 0  0.9 0.18 0  0.92 0.18 0  0.9399999999999999 0.18 0  0.96 0.18 0  0.98 0.18 0  1 0.18 0  0 0.2 0  0.02 0.2 0  0.04 0.2 0  0.06 0.2 0  0.08 0.2 0  0.1 0.2 0  0.12 0.2 0  0.14 0.2 0  0.16 0.2 0  0.18 0.2 0  0.2 0.2 0  0.22 0.2 0  0.24 0.2 0  0.26 0.2 0  0.28 0.2 0  0.3 0.2 0  0.32 0.2 0  0.34 0.2 0  0.36 0.2 0  0.38 0.2 0  0.4 0.2 0  0.42 0.2 0  0.44 0.2 0  0.46 0.2 0  0.48 0.2 0  0.5 0.2 0  0.52 0.2 0  0.54 0.2 0  0.5600000000000001 0.2 0  0.58 0.2 0  0.6 0.2 0  0.62 0.2 0  0.64 0.2 0  0.66 0.2 0  0.68 0.2 0  0.7 0.2 0  0.72 0.2 0  0.74 0.2 0  0.76 0.2 0  0.78 0.2 0  0.8 0.2 0  0.82 0.2 0  0.84 0.2 0  0.86 0.2 0  0.88 0.2 0  0.9 0.2 0  0.92 0.2 0  0.9399999999999999 0.2 0  0.96 0.2 0  0.98 0.2 0  1 0.2 0  0 0.22 0  0.02 0.22 0  0.04 0.22 0  0.06 0.22 0  0.08 0.22 0  0.1 0.22 0  0.12 0.22 0  0.14 0.22 0  0.16 0.22 0  0.18 0.22 0  0.2 0.22 0  0.22 0.22 0  0.24 0.22 0  0.26 0.22 0  0.28 0.22 0  0.3 0.22 0  0.32 0.22 0  0.34 0.22 0  0.36 0.22 0  0.38 0.22 0  0.4 0.22 0  0.42 0.22 0  0.44 0.22 0  0.46 0.22 0  0.48 0.22 0  0.5 0.22 0  0.52 0.22 0  0.54 0.22 0  0.5600000000000001 0.22 0  0.58 0.22 0  0.6 0.22 0  0.62 0.22 0  0.64 0.22 0  0.66 0.22 0  0.68 0.22 0  0.7 0.22 0  0.72 0.22 0  0.74 0.22 0  0.76 0.22 0  0.78 0.22 0  0.8 0.22 0  0.82 0.22 0  0.84 0.22 0  0.86 0.22 0  0.88 0.22 0  0.9 0.22 0  0.92 0.22 0  0.9399999999999999 0.22 0  0.96 0.22 0  0.98 0.22 0  1 0.22 0  0 0.24 0  0.02 0.24 0  0.04 0.24 0  0.06 0.24 0  0.08 0.24 0  0.1 0.24 0  0.12 0.24 0  0.14 0.24 0  0.16 0.24 0  0.18 0.24 0  0.2 0.24 0  0.22 0.24 0  0.24 0.24 0  0.26 0.24 0  0.28 0.24 0  0.3 0.24 0  0.32 0.24 0  0.34 0.24 0  0.36 0.24 0  0.38 0.24 0  0.4 0.24 0  0.42 0.24 0  0.44 0.24 0  0.46 0.24 0  0.48 0.24 0  0.5 0.24 0  0.52 0.24 0  0.54 0.24 0  0.5600000000000001 0.24 0  0.58 0.24 0  0.6 0.24 0  0.62 0.24 0  0.64 0.24 0  0.66 0.24 0  0.68 0.24 0  0.7 0.24 0  0.72 0.24 0  0.74 0.24 0  0.76 0.24 0  0.78 0.24 0  0.8 0.24 0  0.82 0.24 0  0.84 0.24 0  0.86 0.24 0  0.88 0.24 0  0.9 0.24 0  0.92 0.24 0  0.9399999999999999 0.24 0  0.96 0.24 0  0.98 0.24 0  1 0.24 0  0 0.26 0  0.02 0.26 0  0.04 0.26 0  0.06 0.26 0  0.08 0.26 0  0.1 0.26 0  0.12 0.26 0  0.14 0.26 0  0.16 0.26 0  0.18 0.26 0  0.2 0.26 0  0.22 0.26 0  0.24 0.26 0  0.26 0.26 0  0.28 0.26 0  0.3 0.26 0  0.32 0.26 0  0.34 0.26 0  0.36 0.26 0  0.38 0.26 0  0.4 0.26 0  0.42 0.26 0  0.44 0.26 0  0.46 0.26 0  0.48 0.26 0  0.5 0.26 0  0.52 0.26 0  0.54 0.26 0  0.5600000000000001 0.26 0  0.58 0.26 0  0.6 0.26 0  0.62 0.26 0  0.64 0.26 0  0.66 0.26 0  0.68 0.26 0  0.7 0.26 0  0.72 0.26 0  0.74 0.26 0  0.76 0.26 0  0.78 0.26 0  0.8 0.26 0  0.82 0.26 0  0.84 0.26 0  0.86 0.26 0  0.88 0.26 0  0.9 0.26 0  0.92 0.26 0  0.9399999999999999 0.26 0  0.96 0.26 0  0.98 0.26 0  1 0.26 0  0 0.28 0  0.02 0.28 0  0.04 0.28 0  0.06 0.28 0  0.08 0.28 0  0.1 0.28 0  0.12 0.28 0  0.14 0.28 0  0.16 0.28 0  0.18 0.28 0  0.2 0.28 0  0.22 0.28 0  0.24 0.28 0  0.26 0.28 0  0.28 0.28 0  0.3 0.28 0  0.32 0.28 0  0.34 0.28 0  0.36 0.28 0  0.38 0.28 0  0.4 0.28 0  0.42 0.28 0  0.44 0.28 0  0.46 0.28 0  0.48 0.28 0  0.5 0.28 0  0.52 0.28 0  0.54 0.28 0  0.5600000000000001 0.28 0  0.58 0.28 0  0.6 0.28 0  0.62 0.28 0  0.64 0.28 0  0.66 0.28 0  0.68 0.28 0  0.7 0.28 0  0.72 0.28 0  0.74 0.28 0  0.76 0.28 0  0.78 0.28 0  0.8 0.28 0  0.82 0.28 0  0.84 0.28 0  0.86 0.28
[...]
<PointData  Vectors="f_172"> 
<DataArray  type="Float64"  Name="f_172"  NumberOfComponents="3" format="ascii">-6.4885789974462005e-01 -2.1249956867147731e-05 0.0000000000000000e+00  -6.4897128872263232e-01 1.2415685124484127e-04 0.0000000000000000e+00  -6.4921293853916473e-01 2.2948053842611148e-04 0.0000000000000000e+00  -6.4964392950643490e-01 3.3847852811151943e-04 0.0000000000000000e+00  -6.5027705974639449e-01 4.4840228531829382e-04 0.0000000000000000e+00  -6.5112868223905318e-01 5.6002155648130804e-04 0.0000000000000000e+00  -6.5221927496953003e-01 6.7402415507171020e-04 0.0000000000000000e+00  -6.5357173191461082e-01 7.9095201313258046e-04 0.0000000000000000e+00  -6.5521159717774979e-01 9.1138036072120100e-04 0.0000000000000000e+00  -6.5716706751280951e-01 1.0359004100130235e-03 0.0000000000000000e+00  -6.5946904626569747e-01 1.1651307055875876e-03 0.0000000000000000e+00  -6.6215122258061465e-01 1.2997237225015215e-03 0.0000000000000000e+00  -6.6525016845582374e-01 1.4403721263025263e-03 0.0000000000000000e+00  -6.6880545639013300e-01 1.5878156221093866e-03 0.0000000000000000e+00  -6.7285979963160714e-01 1.7428485383145821e-03 0.0000000000000000e+00  -6.7745921837880796e-01 1.9063284616205164e-03 0.0000000000000000e+00  -6.8265323622494289e-01 2.0791862057485695e-03 0.0000000000000000e+00  -6.8849511217615700e-01 2.2624374420016015e-03 0.0000000000000000e+00  -6.9504211481486733e-01 2.4571963882496178e-03 0.0000000000000000e+00  -7.0235584669498141e-01 2.6646920484836743e-03 0.0000000000000000e+00  -7.1050262895139471e-01 2.8862876221606147e-03 0.0000000000000000e+00  -7.1955395850363058e-01 3.1235038714276732e-03 0.0000000000000000e+00  -7.2958705329799056e-01 3.3780474587434021e-03 0.0000000000000000e+00  -7.4068550498721353e-01 3.6518455681610823e-03 0.0000000000000000e+00  -7.5294006359192855e-01 3.9470885280906837e-03 0.0000000000000000e+00  -7.6644958545307873e-01 4.2662827060485414e-03 0.0000000000000000e+00  -7.8132218475953552e-01 4.6123167068321232e-03 0.0000000000000000e+00  -7.9767664097668178e-01 4.9885449670134824e-03 0.0000000000000000e+00  -8.1564413083845133e-01 5.3988943387852312e-03 0.0000000000000000e+00  -8.3537037600622055e-01 5.8480014064285690e-03 0.0000000000000000e+00  -8.5701832874272299e-01 6.3413914104435247e-03 0.0000000000000000e+00  -8.8077156208476604e-01 6.8857142904717901e-03 0.0000000000000000e+00  -9.0683859437579650e-01 7.4890603544943138e-03 0.0000000000000000e+00  -9.3545847054651965e-01 8.1613888576944939e-03 0.0000000000000000e+00  -9.6690806064068779e-01 8.9151197532593342e-03 0.0000000000000000e+00  -1.0015117452456244e+00 9.7659663270750815e-03 0.0000000000000000e+00  -1.0396544879452030e+00 1.0734132143263415e-02 0.0000000000000000e+00  -1.0817998070935024e+00 1.1846074095043877e-02 0.0000000000000000e+00  -1.1285150765368435e+00 1.3137175120647332e-02 0.0000000000000000e+00  -1.1805078674862457e+00 1.4655930092074502e-02 0.0000000000000000e+00  -1.2386804977471793e+00 1.6470770802349762e-02 0.0000000000000000e+00  -1.3042118050753444e+00 1.8681877967040562e-02 0.0000000000000000e+00  -1.3786973270938911e+00 2.1442387823196764e-02 0.0000000000000000e+00  -1.4643498605672380e+00 2.5002281160049818e-02 0.0000000000000000e+00  -1.5645449330636969e+00 2.9821733422635475e-02 0.0000000000000000e+00  -1.6839655503507165e+00 3.6743841736208233e-02 0.0000000000000000e+00  -1.8340001596489186e+00 4.8614630713374199e-02 0.0000000000000000e+00  -2.0219519281247638e+00 7.2251292675271139e-02 0.0000000000000000e+00  -2.3256111922008955e+00 1.3588630961111514e-01 0.0000000000000000e+00  -2.8292903208632478e+00 4.5902395269615270e-01 0.0000000000000000e+00  -3.6491553770826064e+00 1.3367929183044591e+00 0.0000000000000000e+00  -6.4859429846200511e-01 7.0022045634016166e-06 0.0000000000000000e+00  -6.4879704433690077e-01 3.7066408763995295e-04 0.0000000000000000e+00  -6.4902111829140119e-01 7.1323965181985358e-04 0.0000000000000000e+00  -6.4945488010368724e-01 1.0643856043691766e-03 0.0000000000000000e+00  -6.5008521421119647e-01 1.4174397023000219e-03 0.0000000000000000e+00  -6.5093328334692879e-01 1.7767043620785579e-03 0.0000000000000000e+00  -6.5201934555969909e-01 2.1437091522655554e-03 0.0000000000000000e+00  -6.5336627935806990e-01 2.5202644965098570e-03 0.0000000000000000e+00  -6.5499962280384860e-01 2.9081942136198542e-03 0.0000000000000000e+00  -6.5694752925208788e-01 3.3093813959751473e-03 0.0000000000000000e+00  -6.5924085008903166e-01 3.7257993239497196e-03 0.0000000000000000e+00  -6.6191321121601610e-01 4.1595294961951895e-03 0.0000000000000000e+00  -6.6500111008314033e-01 4.6127822039865101e-03 0.0000000000000000e+00  -6.6854403235683446e-01 5.0879182678117947e-03 0.0000000000000000e+00  -6.7258459060227882e-01 5.5874733078759590e-03 0.0000000000000000e+00  -6.7716868846956457e-01 6.1141854008127799e-03 0.0000000000000000e+00  -6.8234571460000371e-01 6.6710270147919875e-03 0.0000000000000000e+00  -6.8816877149540834e-01 7.2612422702070210e-03 0.0000000000000000e+00  -6.9469494578342839e-01 7.8883907909413492e-03 0.0000000000000000e+00  -7.0198562777983242e-01 8.5563997173620024e-03 0.0000000000000000e+00  -7.1010689008179018e-01 9.2696258585787204e-03 0.0000000000000000e+00  -7.1912993724440355e-01 1.0032930501251668e-02 0.0000000000000000e+00  -7.2913164154727050e-01 1.0851770107363252e-02 0.0000000000000000e+00  -7.4019518366356685e-01 1.1732307090737207e-02 0.0000000000000000e+00  -7.5241082198245657e-01 1.2681546151701171e-02 0.0000000000000000e+00  -7.6587682080701036e-01 1.3707503405978172e-02 0.0000000000000000e+00  -7.8070057620958777e-01 1.4819417962297146e-02 0.0000000000000000e+00  -7.9699998976440711e-01 1.6028018971814113e-02 0.0000000000000000e+00  -8.1490515583048151e-01 1.7345865927437767e-02 0.0000000000000000e+00  -8.3456044918106931e-01 1.8787786796485174e-02 0.0000000000000000e+00  -8.5612712902280175e-01 2.0371448460209451e-02 0.0000000000000000e+00  -8.7978661650035805e-01 2.2118108547753021e-02 0.0000000000000000e+00  -9.0574466128716913e-01 2.4053619743077247e-02 0.0000000000000000e+00  -9.3423669758283046e-01 2.6209791403576398e-02 0.0000000000000000e+00  -9.6553481485117632e-01 2.8626266314930631e-02 0.0000000000000000e+00  -9.9995695630038284e-01 3.1353155636934041e-02 0.0000000000000000e+00  -1.0378792477736491e+00 3.4454815994252791e-02 0.0000000000000000e+00  -1.0797528105398844e+00 3.8015392989967901e-02 0.0000000000000000e+00  -1.1261271597547380e+00 4.2147179877019145e-02 0.0000000000000000e+00  -1.1776834537863161e+00 4.7003618688319815e-02 0.0000000000000000e+00  -1.2352831942030889e+00 5.2800285693134677e-02 0.0000000000000000e+00  -1.3000407160505965e+00 5.9850195842509647e-02 0.0000000000000000e+00  -1.3734384773814972e+00 6.8626398765433999e-02 0.0000000000000000e+00  -1.4575033392680166e+00 7.9880878942431260e-02 0.0000000000000000e+00  -1.5551298519286463e+00 9.4875484456380235e-02 0.0000000000000000e+00  -1.6705491631116167e+00 1.1592951229323112e-01 0.0000000000000000e+00  -1.8105160463084708e+00 1.4762229535728111e-01 0.0000000000000000e+00  -1.9830831280695771e+00 1.9900568906107410e-01 0.0000000000000000e+00  -2.2171840862194059e+00 2.9848448954033768e-01 0.0000000000000000e+00  -2.4274859047796911e+00 4.7013400953927531e-01 0.0000000000000000e+00  -2.9116232172932741e+00 8.6712354936154745e-01 0.0000000000000000e+00  -6.4791883237357717e-01 -1.0214465779955915e-06 0.0000000000000000e+00  -6.4825637395282532e-01 7.4762584052830855e-04 0.0000000000000000e+00  -6.4845084242702378e-01 1.5049558108908654e-03 0.0000000000000000e+00  -6.4888596023027745e-01 2.2687832791591345e-03 0.0000000000000000e+00  -6.4950664827487092e-01 3.0406698625019377e-03 0.0000000000000000e+00  -6.5034379760231098e-01 3.8261761499393805e-03 0.0000000000000000e+00  -6.5141581882237198e-01 4.6284821429008766e-03 0.0000000000000000e+00  -6.5274584118050694e-01 5.4515678966899237e-03 0.0000000000000000e+00  -6.5435928544028055e-01 6.2993516130363568e-03 0.0000000000000000e+00  -6.5628417667721362e-01 7.1759275713526140e-03 0.0000000000000000e+00  -6.5855120780296816e-01 8.0855823026270424e-03 0.0000000000000000e+00  -6.6119381349497230e-01 9.0328373402483279e-03 0.0000000000000000e+00  -6.6424826698030104e-01 1.0022492205003014e-02 0.0000000000000000e+00  -6.6775379296912796e-01 1.1059670669598051e-02 0.0000000000000000e+00  -6.7175270160867584e-01 1.2149872756126901e-02 0.0000000000000000e+00  -6.7629054656163123e-01 1.3299033961475033e-02 0.0000000000000000e+00  -6.8141631128356672e-01 1.4513593608314298e-02 0.0000000000000000e+00  -6.8718262845268607e-01 1.5800574503276543e-02 0.0000000000000000e+00  -6.9364603856685092e-01 1.7167676557966270e-02 0.0000000000000000e+00  -7.0086729505259715e-01 1.8623387669684601e-02 0.0000000000000000e+00  -7.0891172488280585e-01 2.0177116004763553e-02 0.0000000000000000e+00  -7.1784965578084603e-01 2.1839348946286752e-02 0.0000000000000000e+00  -7.2775692372293999e-01 2.3621845446025375e-02 0.0000000000000000e+00  -7.3871547781705749e-01 2.5537870490008462e-02 0.0000000000000000e+00  -7.5081410396541248e-01 2.7602483031337995e-02 0.0000000000000000e+00  -7.6414929433375267e-01 2.9832892329149392e-02 0.0000000000000000e+00  -7.7882629699231354e-01 3.2248902543129017e-02 0.0000000000000000e+00  -7.9496038977840755e-01 3.4873472237961604e-02 0.0000000000000000e+00  -8.1267843531863548e-01 3.7733424994937315e-02 0.0000000000000000e+00  -8.3212079146798035e-01 4.0860360892220747e-02 0.0000000000000000e+00  -8.5344367492917816e-01 4.4291838169080687e-02 0.0000000000000000e+00  -8.7682210805479632e-01 4.8072923018225334e-02 0.0000000000000000e+00  -9.0245362353892422e-01 5.2258248070978418e-02 0.0000000000000000e+00  -9.3056296434938379e-01 5.6914784758208936e-02 0.0000000000000000e+00  -9.6140810516905917e-01 6.2125634654990214e-02 0.0000000000000000e+00  -9.9528804850248220e-01 6.7995302819491107e-02 0.0000000000000000e+00  -1.0325530339321209e+00 7.4657171636788269e-02 0.0000000000000000e+00  -1.0736180611316384e+00 8.2284317878370608e-02 0.0000000000000000e+00  -1.1189810374752953e+00 9.1105540096498211e-02 0.0000000000000000e+00  -1.1692473368264042e+00 1.0142973925267304e-01 0.0000000000000000e+00  -1.2251636514809414e+00 1.1368411391208999e-01 0.0000000000000000e+00  -1.2876636304433646e+00 1.2847597639325775e-01 0.0000000000000000e+00  -1.3579339298438111e+00 1.4669660972873996e-01 0.0000000000000000e+00  -1.4374850424997121e+00 1.6970141119313842e-01 0.0000000000000000e+00  -1.5282977240555937e+00 1.9963885795212560e-01 0.0000000000000000e+00  -1.6326821345775089e+00 2.4005912058982359e-01 0.0000000000000000e+00  -1.7538902821020295e+00 2.9701293352427655e-01 0.0000000000000000e+00  -1.8922789462824845e+00 3.8152472696189638e-01 0.0000000000000000e+00  -2.0519333706251133e+00 5.1130529197395669e-01 0.0000000000000000e+00  -2.1839933351819663e+00 7.1415051317817757e-01 0.0000000000000000e+00  -2.3873637907313698e+00 1.0508190599959988e+00 0.0000000000000000e+00  -6.4688281386175162e-01 3.2219062824059204e-07 0.0000000000000000e+00  -6.4735394640237642e-01 1.1147607183659991e-03 0.0000000000000000e+00  -6.4750615173039205e-01 2.2323312951084751e-03 0.0000000000000000e+00  -6.4794063771671517e-01 3.3578429323390976e-03 0.0000000000000000e+00  -6.4854514396523288e-01 4.4979493413158031e-03 0.0000000000000000e+00  -6.4936409011558782e-01 5.6579026324179169e-03 0.0000000000000000e+00  -6.5041268669795238e-01 6.8429400267824578e-03 0.0000000000000000e+00  -6.5171463405294272e-01 8.0587669911881717e-03 0.0000000000000000e+00  -6.5329505064545312e-01 9.3111136360273048e-03 0.0000000000000000e+00  -6.5518176304923859e-01 1.0605999237860509e-02 0.0000000000000000e+00  -6.5740519554041610e-01 1.1949724210489600e-02 0.0000000000000000e+00  -6.5999846679720808e-01 1.3348938595312616e-02 0.0000000000000000e+00  -6.6299748053694729e-01 1.4810700182178758e-02 0.0000000000000000e+00  -6.6644103224994322e-01 1.6342541204648790e-02 0.0000000000000000e+00  -6.7037093532945524e-01 1.7952543299917922e-02 0.0000000000000000e+00  -6.7483216914289945e-01 1.9649423058688494e-02 0.0000000000000000e+00  -6.7987305293969202e-01 2.1442630745828483e-02 0.0000000000000000e+00  -6.8554545002647627e-01 2.3342465225489859e-02 0.0000000000000000e+00  -6.9190500755847761e-01 2.5360208825135348e-02 0.0000000000000000e+00  -6.9901143840643087e-01 2.7508286771912731e-02 0.0000000000000000e+00  -7.0692885293379015e-01 2.9800457015990902e-02 0.0000000000000000e+00  -7.1572615023166941e-01 3.2252037802547970e-02 0.0000000000000000e+00  -7.2547748050096650e-01 3.4880182387791100e-02 0.0000000000000000e+00  -7.3626279296246244e-01 3.7704212987740890e-02 0.0000000000000000e+00  -7.4816848707715911e-01 4.0746029643113767e-02 0.0000000000000000e+00  -7.6128818917812247e-01 4.4030614523135683e-02 0.0000000000000000e+00  -7.7572368212891440e-01 4.7586658771128588e-02 0.0000000000000000e+00  -7.9158602269343448e-01 5.1447348033328184e-02 0.0000000000000000e+00  -8.0899689040745759e-01 5.5651355368669872e-02 0.0000000000000000e+00  -8.2809022350612149e-01 6.0244107886379725e-02 0.0000000000000000e+00  -8.4901421269430821e-01 6.5279418582647603e-02 0.0000000000000000e+00  -8.7193374326352302e-01 7.0821611099022810e-02 0.0000000000000000e+00  -8.9703340148772415e-01 7.6948318184457049e-02 0.0000000000000000e+00  -9.2452119366304897e-01 8.3754213493773627e-02 0.0000000000000000e+00  -9.5463316676851206e-01 9.1356055433074193e-02 0.0000000000000000e+00  -9.8763916787909634e-01 9.9899604645269813e-02 0.0000000000000000e+00  -1.0238500330920566e+00 1.0956926256554975e-01 0.0000000000000000e+00  -1.0636265355895160e+00 1.2060173317967499e-01 0.0000000000000000e+00  -1.1073904365999863e+00 1.3330574628168487e-01 0.0000000000000000e+00  -1.1556377746700452e+00 1.4809109041516166e-01 0.0000000000000000e+00  -1.2089542760984284e+00 1.6551221705466157e-01 0.0000000000000000e+00  -1.2680303375756177e+00 1.8633504349100111e-01 0.0000000000000000e+00  -1.3336732282627393e+00 2.1164107873915758e-01 0.0000000000000000e+00  -1.4067897956300865e+00 2.4299177304614011e-01 0.0000000000000000e+00  -1.4883518312796924e+00 2.8268815807012443e-01 0.0000000000000000e+00  -1.5790534028148617e+00 3.3416206034954082e-01 0.0000000000000000e+00  -1.6793156613600477e+00 4.0256485314427010e-01 0.0000000000000000e+00  -1.7855323495614612e+00 4.9520192636405114e-01 0.0000000000000000e+00  -1.8974657028367792e+00 6.2162616229231393e-01 0.0000000000000000e+00  -1.9709667511645499e+00 7.9114923620485156e-01 0.0000000000000000e+00  -2.0921802784398249e+00 9.9062688822907741e-01 0.0000000000000000e+00  -6.4548359571332803e-01 3.3606468930874332e-07 0.0000000000000000e+00  -6.4608415982634670e-01 1.4762583475633783e-03 0.0000000000000000e+00  -6.4619264756727923e-01 2.9590436205805498e-03 0.0000000000000000e+00  -6.4662315053211084e-01 4.4548760343827406e-03 0.0000000000000000e+00  -6.4720508658885334e-01 5.9703087020799806e-03 0.0000000000000000e+00  -6.4799847344358041e-01 7.5120444357991709e-03 0.0000000000000000e+00  -6.4901435034515464e-01 9.0872879109694556e-03 0.0000000000000000e+00  -6.5027718810804469e-01 1.0703386865144290e-02 0.0000000000000000e+00  -6.5181162181069208e-01 1.2367937050099460e-02 0.0000000000000000e+00  -6.5364521525829145e-01 1.4088886332189554e-02 0.0000000000000000e+00  -6.5580801143873202e-01 1.5874561126278535e-02 0.0000000000000000e+00  -6.5833269334259592e-01 1.7733750114889351e-02 0.0000000000000000e+00  -6.6125465540310580e-01 1.9675776531331741e-02 0.0000000000000000e+00  -6.6461210330152021e-01 2.1710584416774346e-02 0.0000000000000000e+00  -6.6844616899290232e-01 2.3848834963885082e-02 0.0000000000000000e+00  -6.7280104523276263e-01 2.6102016728139277e-02 0.0000000000000000e+00  -6.7772414285392590e-01 2.8482572631262755e-02 0.0000000000000000e+00  -6.8326627452496524e-01 3.1004047533617643e-02 0.0000000000000000e+00  -6.8948186946517842e-01 3.3681261002170303e-02 0.0000000000000000e+00  -6.9642922442058741e-01 3.6530511008419274e-02 0.0000000000000000e+00  -7.0417079723629405e-01 3.9569815730835962e-02 0.0000000000000000e+00  -7.1277355061248671e-01 4.2819202502953325e-02 0.0000000000000000e+00  -7.2230935515997841e-01 4.6301055384845288e-02 0.0000000000000000e+00  -7.3285546272805446e-01 5.0040536034370191e-02 0.0000000000000000e+00  -7.4449506324230719e-01 5.4066096787880998e-02 0.0000000000000000e+00  -7.5731794103672401e-01 5.8410110502138436e-02 0.0000000000000000e+00  -7.7142124998600337e-01 6.3109649298305759e-02 0.0000000000000000e+00  -7.8691043072102107e-01 6.8207454644903853e-02 0.0000000000000000e+00  -8.0390029790596540e-01 7.3753155320739727e-02 0.0000000000000000e+00  -8.2251633095576215e-01 7.9804809309394958e-02 0.0000000000000000e+00  -8.4289620751145089e-01 8.6430872946321624e-02 0.0000000000000000e+00  -8.6519162495855551e-01 9.3712739156733477e-02 0.0000000000000000e+00  -8.8957046010167407e-01 1.0174804161739928e-01 0.0000000000000000e+00  -9.1621931825728398e-01 1.1065500104409619e-01 0.0000000000000000e+00  -9.4534651550772264e-01 1.2057820555602093e-01 0.0000000000000000e+00  -9.7718551103468276e-01 1.3169638750491228e-01 0.0000000000000000e+00  -1.0119987419127408e+00 1.4423301213075285e-01 0.0000000000000000e+00  -1.0500816641197168e+00 1.5847087072570326e-01 0.0000000000000000e+00  -1.0917665180753604e+00 1.7477243351799973e-01 0.0000000000000000e+00  -1.1374246592665833e+00 1.9360854687339776e-01 0.0000000000000000e+00  -1.1874653067714218e+00 2.1559924873441511e-01 0.0000000000000000e+00  -1.2423251274977996e+00 2.4157205124905462e-01 0.0000000000000000e+00  -1.3024420308487807e+00 2.7264481323743095e-01 0.0000000000000000e+00  -1.3681820748518074e+00 3.1034105885102548e-01 0.0000000000000000e+00  -1.4397297580769255e+00 3.5674163232711165e-01 0.0000000000000000e+00  -1.5166897554383787e+00 4.1465942143457102e-01 0.0000000000000000e+00  -1.5980183242098269e+00 4.8775918390068534e-01 0.0000000000000000e+00  -1.6792327648990557e+00 5.8039381814675106e-01 0.0000000000000000e+00  -1.7587010023354777e+00 6.9685456208691898e-01 0.0000000000000000e+00  -1.8047183031718024e+00 8.3740351921823131e-01 0.0000000000000000e+00  -1.8903960003080040e+00 9.9971879053713908e-01 0.0000000000000000e+00  -6.4372734261312492e-01 3.9743631985658174e-07 0.0000000000000000e+00  -6.4445468332377720e-01 1.8321410810383987e-03 0.0000000000000000e+00  -6.4451731091488196e-01 3.6724121481364956e-03 0.0000000000000000e+00  -6.4493913534126579e-01 5.5284888091497409e-03 0.0000000000000000e+00  -6.4549273097103932e-01 7.4088392019414258e-03 0.0000000000000000e+00  -6.4625327705712887e-01 9.3220122411813260e-03 0.0000000000000000e+00  -6.4722736434404105e-01 1.1276776669416958e-02 0.0000000000000000e+00  -6.4844030403690689e-01 1.3282150494477361e-02 0.0000000000000000e+00  -6.4991610913711106e-01 1.5347519060684333e-02 0.0000000000000000e+00  -6.5168201301988338e-01 1.7482671580480943e-02 0.0000000000000000e+00  -6.5376757011584707e-01 1.9697875706367215e-02 0.0000000000000000e+00  -6.5620491541415638e-01 2.2003963085175972e-02 0.0000000000000000e+00  -6.5902880277915266e-01 2.4412417444952934e-02 0.0000000000000000e+00  -6.6227669857717442e-01 2.6935477438547080e-02 0.0000000000000000e+00  -6.6598888223018105e-01 2.9586251612096135e-02 0.0000000000000000e+00  -6.7020856429010445e-01 3.2378849984189620e-02 0.0000000000000000e+00  -6.7498202347727043e-01 3.5328535315397813e-02 0.0000000000000000e+00  -6.8035876575182153e-01 3.8451898428654457e-02 0.0000000000000000e+00  -6.8639170883774447e-01 4.1767062823611457e-02 0.0000000000000000e+00  -6.9313739616420467e-01 4.5293925086881619e-02 0.0000000000000000e+00  -7.0065624483453648e-01 4.9054439190108011e-02 0.0000000000000000e+00  -7.0901283297714823e-01 5.3072954811371191e-02 0.0000000000000000e+00  -7.1827623268572494e-01 5.7376622455784947e-02 0.0000000000000000e+00  -7.2852039571099880e-01 6.1995881581649835e-02 0.0000000000000000e+00  -7.3982460011058704e-01 6.6965052422825869e-02 0.0000000000000000e+00  -7.52273