<?xml version="1.0"?>
<VTKFile type="UnstructuredGrid"  version="0.1"  >
<UnstructuredGrid>
<Piece  NumberOfPoints="2601" NumberOfCells="5000">
<Points>
<DataArray  type="Float64"  NumberOfComponents="3"  format="ascii">0 0 0  0.02 0 0  0.04 0 0  0.06 0 0  0.08 0 0  0.1 0 0  0.12 0 0  0.14 0 0  0.16 0 0  0.18 0 0  0.2 0 0  0.22 0 0  0.24 0 0  0.26 0 0  0.28 0 0  0.3 0 0  0.32 0 0  0.34 0 0  0.36 0 0  0.38 0 0  0.4 0 0  0.42 0 0  0.44 0 0  0.46 0 0  0.48 0 0  0.5 0 0  0.52 0 0  0.54 0 0  0.5600000000000001 0 0  0.58 0 0  0.6 0 0  0.62 0 0  0.64 0 0  0.66 0 0  0.68 0 0  0.7 0 0  0.72 0 0  0.74 0 0  0.76 0 0  0.78 0 0  0.8 0 0  0.82 0 0  0.84 0 0  0.86 0 0  0.88 0 0  0.9 0 0  0.92 0 0  0.9399999999999999 0 0  0.96 0 0  0.98 0 0  1 0 0  0 0.02 0  0.02 0.02 0  0.04 0.02 0  0.06 0.02 0  0.08 0.02 0  0.1 0.02 0  0.12 0.02 0  0.14 0.02 0  0.16 0.02 0  0.18 0.02 0  0.2 0.02 0  0.22 0.02 0  0.24 0.02 0  0.26 0.02 0  0.28 0.02 0  0.3 0.02 0  0.32 0.02 0  0.34 0.02 0  0.36 0.02 0  0.38 0.02 0  0.4 0.02 0  0.42 0.02 0  0.44 0.02 0  0.46 0.02 0  0.48 0.02 0  0.5 0.02 0  0.52 0.02 0  0.54 0.02 0  0.5600000000000001 0.02 0  0.58 0.02 0  0.6 0.02 0  0.62 0.02 0  0.64 0.02 0  0.66 0.02 0  0.68 0.02 0  0.7 0.02 0  0.72 0.02 0  0.74 0.02 0  0.76 0.02 0  0.78 0.02 0  0.8 0.02 0  0.82 0.02 0  0.84 0.02 0  0.86 0.02 0  0.88 0.02 0  0.9 0.02 0  0.92 0.02 0  0.9399999999999999 0.02 0  0.96 0.02 0  0.98 0.02 0  1 0.02 0  0 0.04 0  0.02 0.04 0  0.04 0.04 0  0.06 0.04 0  0.08 0.04 0  0.1 0.04 0  0.12 0.04 0  0.14 0.04 0  0.16 0.04 0  0.18 0.04 0  0.2 0.04 0  0.22 0.04 0  0.24 0.04 0  0.26 0.04 0  0.28 0.04 0  0.3 0.04 0  0.32 0.04 0  0.34 0.04 0  0.36 0.04 0  0.38 0.04 0  0.4 0.04 0  0.42 0.04 0  0.44 0.04 0  0.46 0.04 0  0.48 0.04 0  0.5 0.04 0  0.52 0.04 0  0.54 0.04 0  0.5600000000000001 0.04 0  0.58 0.04 0  0.6 0.04 0  0.62 0.04 0  0.64 0.04 0  0.66 0.04 0  0.68 0.04 0  0.7 0.04 0  0.72 0.04 0  0.74 0.04 0  0.76 0.04 0  0.78 0.04 0  0.8 0.04 0  0.82 0.04 0  0.84 0.04 0  0.86 0.04 0  0.88 0.04 0  0.9 0.04 0  0.92 0.04 0  0.9399999999999999 0.04 0  0.96 0.04 0  0.98 0.04 0  1 0.04 0  0 0.06 0  0.02 0.06 0  0.04 0.06 0  0.06 0.06 0  0.08 0.06 0  0.1 0.06 0  0.12 0.06 0  0.14 0.06 0  0.16 0.06 0  0.18 0.06 0  0.2 0.06 0  0.22 0.06 0  0.24 0.06 0  0.26 0.06 0  0.28 0.06 0  0.3 0.06 0  0.32 0.06 0  0.34 0.06 0  0.36 0.06 0  0.38 0.06 0  0.4 0.06 0  0.42 0.06 0  0.44 0.06 0  0.46 0.06 0  0.48 0.06 0  0.5 0.06 0  0.52 0.06 0  0.54 0.06 0  0.5600000000000001 0.06 0  0.58 0.06 0  0.6 0.06 0  0.62 0.06 0  0.64 0.06 0  0.66 0.06 0  0.68 0.06 0  0.7 0.06 0  0.72 0.06 0  0.74 0.06 0  0.76 0.06 0  0.78 0.06 0  0.8 0.06 0  0.82 0.06 0  0.84 0.06 0  0.86 0.06 0  0.88 0.06 0  0.9 0.06 0  0.92 0.06 0  0.9399999999999999 0.06 0  0.96 0.06 0  0.98 0.06 0  1 0.06 0  0 0.08 0  0.02 0.08 0  0.04 0.08 0  0.06 0.08 0  0.08 0.08 0  0.1 0.08 0  0.12 0.08 0  0.14 0.08 0  0.16 0.08 0  0.18 0.08 0  0.2 0.08 0  0.22 0.08 0  0.24 0.08 0  0.26 0.08 0  0.28 0.08 0  0.3 0.08 0  0.32 0.08 0  0.34 0.08 0  0.36 0.08 0  0.38 0.08 0  0.4 0.08 0  0.42 0.08 0  0.44 0.08 0  0.46 0.08 0  0.48 0.08 0  0.5 0.08 0  0.52 0.08 0  0.54 0.08 0  0.5600000000000001 0.08 0  0.58 0.08 0  0.6 0.08 0  0.62 0.08 0  0.64 0.08 0  0.66 0.08 0  0.68 0.08 0  0.7 0.08 0  0.72 0.08 0  0.74 0.08 0  0.76 0.08 0  0.78 0.08 0  0.8 0.08 0  0.82 0.08 0  0.84 0.08 0  0.86 0.08 0  0.88 0.08 0  0.9 0.08 0  0.92 0.08 0  0.9399999999999999 0.08 0  0.96 0.08 0  0.98 0.08 0  1 0.08 0  0 0.1 0  0.02 0.1 0  0.04 0.1 0  0.06 0.1 0  0.08 0.1 0  0.1 0.1 0  0.12 0.1 0  0.14 0.1 0  0.16 0.1 0  0.18 0.1 0  0.2 0.1 0  0.22 0.1 0  0.24 0.1 0  0.26 0.1 0  0.28 0.1 0  0.3 0.1 0  0.32 0.1 0  0.34 0.1 0  0.36 0.1 0  0.38 0.1 0  0.4 0.1 0  0.42 0.1 0  0.44 0.1 0  0.46 0.1 0  0.48 0.1 0  0.5 0.1 0  0.52 0.1 0  0.54 0.1 0  0.5600000000000001 0.1 0  0.58 0.1 0  0.6 0.1 0  0.62 0.1 0  0.64 0.1 0  0.66 0.1 0  0.68 0.1 0  0.7 0.1 0  0.72 0.1 0  0.74 0.1 0  0.76 0.1 0  0.78 0.1 0  0.8 0.1 0  0.82 0.1 0  0.84 0.1 0  0.86 0.1 0  0.88 0.1 0  0.9 0.1 0  0.92 0.1 0  0.9399999999999999 0.1 0  0.96 0.1 0  0.98 0.1 0  1 0.1 0  0 0.12 0  0.02 0.12 0  0.04 0.12 0  0.06 0.12 0  0.08 0.12 0  0.1 0.12 0  0.12 0.12 0  0.14 0.12 0  0.16 0.12 0  0.18 0.12 0  0.2 0.12 0  0.22 0.12 0  0.24 0.12 0  0.26 0.12 0  0.28 0.12 0  0.3 0.12 0  0.32 0.12 0  0.34 0.12 0  0.36 0.12 0  0.38 0.12 0  0.4 0.12 0  0.42 0.12 0  0.44 0.12 0  0.46 0.12 0  0.48 0.12 0  0.5 0.12 0  0.52 0.12 0  0.54 0.12 0  0.5600000000000001 0.12 0  0.58 0.12 0  0.6 0.12 0  0.62 0.12 0  0.64 0.12 0  0.66 0.12 0  0.68 0.12 0  0.7 0.12 0  0.72 0.12 0  0.74 0.12 0  0.76 0.12 0  0.78 0.12 0  0.8 0.12 0  0.82 0.12 0  0.84 0.12 0  0.86 0.12 0  0.88 0.12 0  0.9 0.12 0  0.92 0.12 0  0.9399999999999999 0.12 0  0.96 0.12 0  0.98 0.12 0  1 0.12 0  0 0.14 0  0.02 0.14 0  0.04 0.14 0  0.06 0.14 0  0.08 0.14 0  0.1 0.14 0  0.12 0.14 0  0.14 0.14 0  0.16 0.14 0  0.18 0.14 0  0.2 0.14 0  0.22 0.14 0  0.24 0.14 0  0.26 0.14 0  0.28 0.14 0  0.3 0.14 0  0.32 0.14 0  0.34 0.14 0  0.36 0.14 0  0.38 0.14 0  0.4 0.14 0  0.42 0.14 0  0.44 0.14 0  0.46 0.14 0  0.48 0.14 0  0.5 0.14 0  0.52 0.14 0  0.54 0.14 0  0.5600000000000001 0.14 0  0.58 0.14 0  0.6 0.14 0  0.62 0.14 0  0.64 0.14 0  0.66 0.14 0  0.68 0.14 0  0.7 0.14 0  0.72 0.14 0  0.74 0.14 0  0.76 0.14 0  0.78 0.14 0  0.8 0.14 0  0.82 0.14 0  0.84 0.14 0  0.86 0.14 0  0.88 0.14 0  0.9 0.14 0  0.92 0.14 0  0.9399999999999999 0.14 0  0.96 0.14 0  0.98 0.14 0  1 0.14 0  0 0.16 0  0.02 0.16 0  0.04 0.16 0  0.06 0.16 0  0.08 0.16 0  0.1 0.16 0  0.12 0.16 0  0.14 0.16 0  0.16 0.16 0  0.18 0.16 0  0.2 0.16 0  0.22 0.16 0  0.24 0.16 0  0.26 0.16 0  0.28 0.16 0  0.3 0.16 0  0.32 0.16 0  0.34 0.16 0  0.36 0.16 0  0.38 0.16 0  0.4 0.16 0  0.42 0.16 0  0.44 0.16 0  0.46 0.16 0  0.48 0.16 0  0.5 0.16 0  0.52 0.16 0  0.54 0.16 0  0.5600000000000001 0.16 0  0.58 0.16 0  0.6 0.16 0  0.62 0.16 0  0.64 0.16 0  0.66 0.16 0  0.68 0.16 0  0.7 0.16 0  0.72 0.16 0  0.74 0.16 0  0.76 0.16 0  0.78 0.16 0  0.8 0.16 0  0.82 0.16 0  0.84 0.16 0  0.86 0.16 0  0.88 0.16 0  0.9 0.16 0  0.92 0.16 0  0.9399999999999999 0.16 0  0.96 0.16 0  0.98 0.16 0  1 0.16 0  0 0.18 0  0.02 0.18 0  0.04 0.18 0  0.06 0.18 0  0.08 0.18 0  0.1 0.18 0  0.12 0.18 0  0.14 0.18 0  0.16 0.18 0  0.18 0.18 0  0.2 0.18 0  0.22 0.18 0  0.24 0.18 0  0.26 0.18 0  0.28 0.18 0  0.3 0.18 0  0.32 0.18 0  0.34 0.18 0  0.36 0.18 0  0.38 0.18 0  0.4 0.18 0  0.42 0.18 0  0.44 0.18 0  0.46 0.18 0  0.48 0.18 0  0.5 0.18 0  0.52 0.18 0  0.54 0.18 0  0.5600000000000001 0.18 0  0.58 0.18 0  0.6 0.18 0  0.62 0.18 0  0.64 0.18 0  0.66 0.18 0  0.68 0.18 0  0.7 0.18 0  0.72 0.18 0  0.74 0.18 0  0.76 0.18 0  0.78 0.18 0  0.8 0.18 0  0.82 0.18 0  0.84 0.18 0  0.86 0.18 0  0.88 0.18 0  0.9 0.18 0  0.92 0.18 0  0.9399999999999999 0.18 0  0.96 0.18 0  0.98 0.18 0  1 0.18 0  0 0.2 0  0.02 0.2 0  0.04 0.2 0  0.06 0.2 0  0.08 0.2 0  0.1 0.2 0  0.12 0.2 0  0.14 0.2 0  0.16 0.2 0  0.18 0.2 0  0.2 0.2 0  0.22 0.2 0  0.24 0.2 0  0.26 0.2 0  0.28 0.2 0  0.3 0.2 0  0.32 0.2 0  0.34 0.2 0  0.36 0.2 0  0.38 0.2 0  0.4 0.2 0  0.42 0.2 0  0.44 0.2 0  0.46 0.2 0  0.48 0.2 0  0.5 0.2 0  0.52 0.2 0  0.54 0.2 0  0.5600000000000001 0.2 0  0.58 0.2 0  0.6 0.2 0  0.62 0.2 0  0.64 0.2 0  0.66 0.2 0  0.68 0.2 0  0.7 0.2 0  0.72 0.2 0  0.74 0.2 0  0.76 0.2 0  0.78 0.2 0  0.8 0.2 0  0.82 0.2 0  0.84 0.2 0  0.86 0.2 0  0.88 0.2 0  0.9 0.2 0  0.92 0.2 0  0.9399999999999999 0.2 0  0.96 0.2 0  0.98 0.2 0  1 0.2 0  0 0.22 0  0.02 0.22 0  0.04 0.22 0  0.06 0.22 0  0.08 0.22 0  0.1 0.22 0  0.12 0.22 0  0.14 0.22 0  0.16 0.22 0  0.18 0.22 0  0.2 0.22 0  0.22 0.22 0  0.24 0.22 0  0.26 0.22 0  0.28 0.22 0  0.3 0.22 0  0.32 0.22 0  0.34 0.22 0  0.36 0.22 0  0.38 0.22 0  0.4 0.22 0  0.42 0.22 0  0.44 0.22 0  0.46 0.22 0  0.48 0.22 0  0.5 0.22 0  0.52 0.22 0  0.54 0.22 0  0.5600000000000001 0.22 0  0.58 0.22 0  0.6 0.22 0  0.62 0.22 0  0.64 0.22 0  0.66 0.22 0  0.68 0.22 0  0.7 0.22 0  0.72 0.22 0  0.74 0.22 0  0.76 0.22 0  0.78 0.22 0  0.8 0.22 0  0.82 0.22 0  0.84 0.22 0  0.86 0.22 0  0.88 0.22 0  0.9 0.22 0  0.92 0.22 0  0.9399999999999999 0.22 0  0.96 0.22 0  0.98 0.22 0  1 0.22 0  0 0.24 0  0.02 0.24 0  0.04 0.24 0  0.06 0.24 0  0.08 0.24 0  0.1 0.24 0  0.12 0.24 0  0.14 0.24 0  0.16 0.24 0  0.18 0.24 0  0.2 0.24 0  0.22 0.24 0  0.24 0.24 0  0.26 0.24 0  0.28 0.24 0  0.3 0.24 0  0.32 0.24 0  0.34 0.24 0  0.36 0.24 0  0.38 0.24 0  0.4 0.24 0  0.42 0.24 0  0.44 0.24 0  0.46 0.24 0  0.48 0.24 0  0.5 0.24 0  0.52 0.24 0  0.54 0.24 0  0.5600000000000001 0.24 0  0.58 0.24 0  0.6 0.24 0  0.62 0.24 0  0.64 0.24 0  0.66 0.24 0  0.68 0.24 0  0.7 0.24 0  0.72 0.24 0  0.74 0.24 0  0.76 0.24 0  0.78 0.24 0  0.8 0.24 0  0.82 0.24 0  0.84 0.24 0  0.86 0.24 0  0.88 0.24 0  0.9 0.24 0  0.92 0.24 0  0.9399999999999999 0.24 0  0.96 0.24 0  0.98 0.24 0  1 0.24 0  0 0.26 0  0.02 0.26 0  0.04 0.26 0  0.06 0.26 0  0.08 0.26 0  0.1 0.26 0  0.12 0.26 0  0.14 0.26 0  0.16 0.26 0  0.18 0.26 0  0.2 0.26 0  0.22 0.26 0  0.24 0.26 0  0.26 0.26 0  0.28 0.26 0  0.3 0.26 0  0.32 0.26 0  0.34 0.26 0  0.36 0.26 0  0.38 0.26 0  0.4 0.26 0  0.42 0.26 0  0.44 0.26 0  0.46 0.26 0  0.48 0.26 0  0.5 0.26 0  0.52 0.26 0  0.54 0.26 0  0.5600000000000001 0.26 0  0.58 0.26 0  0.6 0.26 0  0.62 0.26 0  0.64 0.26 0  0.66 0.26 0  0.68 0.26 0  0.7 0.26 0  0.72 0.26 0  0.74 0.26 0  0.76 0.26 0  0.78 0.26 0  0.8 0.26 0  0.82 0.26 0  0.84 0.26 0  0.86 0.26 0  0.88 0.26 0  0.9 0.26 0  0.92 0.26 0  0.9399999999999999 0.26 0  0.96 0.26 0  0.98 0.26 0  1 0.26 0  0 0.28 0  0.02 0.28 0  0.04 0.28 0  0.06 0.28 0  0.08 0.28 0  0.1 0.28 0  0.12 0.28 0  0.14 0.28 0  0.16 0.28 0  0.18 0.28 0  0.2 0.28 0  0.22 0.28 0  0.24 0.28 0  0.26 0.28 0  0.28 0.28 0  0.3 0.28 0  0.32 0.28 0  0.34 0.28 0  0.36 0.28 0  0.38 0.28 0  0.4 0.28 0  0.42 0.28 0  0.44 0.28 0  0.46 0.28 0  0.48 0.28 0  0.5 0.28 0  0.52 0.28 0  0.54 0.28 0  0.5600000000000001 0.28 0  0.58 0.28 0  0.6 0.28 0  0.62 0.28 0  0.64 0.28 0  0.66 0.28 0  0.68 0.28 0  0.7 0.28 0  0.72 0.28 0  0.74 0.28 0  0.76 0.28 0  0.78 0.28 0  0.8 0.28 0  0.82 0.28 0  0.84 0.28 0  0.86 0.28
[...]
<PointData  Vectors="f_432"> 
<DataArray  type="Float64"  Name="f_432"  NumberOfComponents="3" format="ascii">-5.3104596658046366e-01 -2.3767614766389455e-05 0.0000000000000000e+00  -5.3125859897691685e-01 1.0486073901987062e-04 0.0000000000000000e+00  -5.3177758106877115e-01 2.0342947284646319e-04 0.0000000000000000e+00  -5.3268018835164033e-01 3.0576267601933432e-04 0.0000000000000000e+00  -5.3399529846989013e-01 4.0947567791708626e-04 0.0000000000000000e+00  -5.3575317702303904e-01 5.1502095463092307e-04 0.0000000000000000e+00  -5.3798694511776834e-01 6.2301757272113605e-04 0.0000000000000000e+00  -5.4073124578351417e-01 7.3398058512339414e-04 0.0000000000000000e+00  -5.4402253982560478e-01 8.4847033449048169e-04 0.0000000000000000e+00  -5.4789915502312836e-01 9.6707123647614000e-04 0.0000000000000000e+00  -5.5240137070937290e-01 1.0903993453574741e-03 0.0000000000000000e+00  -5.5757152382320874e-01 1.2191078461292674e-03 0.0000000000000000e+00  -5.6345413275444889e-01 1.3538927620590239e-03 0.0000000000000000e+00  -5.7009604283593529e-01 1.4954995315062559e-03 0.0000000000000000e+00  -5.7754659601515101e-01 1.6447304595607727e-03 0.0000000000000000e+00  -5.8585782820772081e-01 1.8024532911421010e-03 0.0000000000000000e+00  -5.9508469862070201e-01 1.9696111561200470e-03 0.0000000000000000e+00  -6.0528535629662827e-01 2.1472341991603822e-03 0.0000000000000000e+00  -6.1652145032568306e-01 2.3364532811680602e-03 0.0000000000000000e+00  -6.2885849166742602e-01 2.5385162393974812e-03 0.0000000000000000e+00  -6.4236627640508270e-01 2.7548073223074218e-03 0.0000000000000000e+00  -6.5711938264708558e-01 2.9868705851180798e-03 0.0000000000000000e+00  -6.7319775635050494e-01 3.2364382570498314e-03 0.0000000000000000e+00  -6.9068740529582628e-01 3.5054653927365821e-03 0.0000000000000000e+00  -7.0968122558736346e-01 3.7961725245543058e-03 0.0000000000000000e+00  -7.3027999182058301e-01 4.1110985860257424e-03 0.0000000000000000e+00  -7.5259355103436298e-01 4.4531671369611925e-03 0.0000000000000000e+00  -7.7674227261136108e-01 4.8257699831055463e-03 0.0000000000000000e+00  -8.0285882262790353e-01 5.2328737825269658e-03 0.0000000000000000e+00  -8.3109035360141092e-01 5.6791573823602457e-03 0.0000000000000000e+00  -8.6160123182964798e-01 6.1701907600559443e-03 0.0000000000000000e+00  -8.9457646865872231e-01 6.7126710810598150e-03 0.0000000000000000e+00  -9.3022608539453078e-01 7.3147383799647345e-03 0.0000000000000000e+00  -9.6879073411816663e-01 7.9864041496547390e-03 0.0000000000000000e+00  -1.0105490347382695e+00 8.7401431014781060e-03 0.0000000000000000e+00  -1.0558272979481960e+00 9.5917258106845843e-03 0.0000000000000000e+00  -1.1050126336194397e+00 1.0561415677515680e-02 0.0000000000000000e+00  -1.1585709586434474e+00 1.1675732004315530e-02 0.0000000000000000e+00  -1.2170723270491390e+00 1.2970122758870587e-02 0.0000000000000000e+00  -1.2812273198795254e+00 1.4493150550301167e-02 0.0000000000000000e+00  -1.3519415663654812e+00 1.6313317777974595e-02 0.0000000000000000e+00  -1.4303977680445070e+00 1.8530878939088072e-02 0.0000000000000000e+00  -1.5181950842493117e+00 2.1299047832479195e-02 0.0000000000000000e+00  -1.6175527905943581e+00 2.4867887856186661e-02 0.0000000000000000e+00  -1.7318443365995981e+00 2.9697665262550767e-02 0.0000000000000000e+00  -1.8657851420832363e+00 3.6631584466227461e-02 0.0000000000000000e+00  -2.0306671153858922e+00 4.8515827429004149e-02 0.0000000000000000e+00  -2.2341964554282563e+00 7.2167894869986315e-02 0.0000000000000000e+00  -2.5526631262751862e+00 1.3582148102667027e-01 0.0000000000000000e+00  -3.0758344596981160e+00 4.5898495453227173e-01 0.0000000000000000e+00  -3.9025392889086694e+00 1.3368126876009023e+00 0.0000000000000000e+00  -5.3081624340447386e-01 7.3330750896949303e-06 0.0000000000000000e+00  -5.3109842120202155e-01 3.4657875122073568e-04 0.0000000000000000e+00  -5.3159773198330962e-01 6.6903413602929101e-04 0.0000000000000000e+00  -5.3250172534341755e-01 1.0019218966434407e-03 0.0000000000000000e+00  -5.3381371743577477e-01 1.3376334228316045e-03 0.0000000000000000e+00  -5.3556789171259467e-01 1.6797430543722630e-03 0.0000000000000000e+00  -5.3779705829154112e-01 2.0296637124641577e-03 0.0000000000000000e+00  -5.4053580178318761e-01 2.3891174539250300e-03 0.0000000000000000e+00  -5.4382055716372468e-01 2.7598896431852973e-03 0.0000000000000000e+00  -5.4768959929899874e-01 3.1438456279245740e-03 0.0000000000000000e+00  -5.5218314899876486e-01 3.5429544306737459e-03 0.0000000000000000e+00  -5.5734347488331282e-01 3.9593036482427684e-03 0.0000000000000000e+00  -5.6321501640742488e-01 4.3951183736674164e-03 0.0000000000000000e+00  -5.6984452802458530e-01 4.8527821387729453e-03 0.0000000000000000e+00  -5.7728124712191908e-01 5.3348607677990495e-03 0.0000000000000000e+00  -5.8557708926621510e-01 5.8441298229019566e-03 0.0000000000000000e+00  -5.9478687493773319e-01 6.3836064425322600e-03 0.0000000000000000e+00  -6.0496859289446692e-01 6.9565865721272161e-03 0.0000000000000000e+00  -6.1618370646825060e-01 7.5666888259212951e-03 0.0000000000000000e+00  -6.2849751054208669e-01 8.2179065348289126e-03 0.0000000000000000e+00  -6.4197954878168006e-01 8.9146699490175695e-03 0.0000000000000000e+00  -6.5670410300595272e-01 9.6619211058916639e-03 0.0000000000000000e+00  -6.7275076953341217e-01 1.0465204591782785e-02 0.0000000000000000e+00  -6.9020514114612197e-01 1.1330778383978718e-02 0.0000000000000000e+00  -7.0915961825223695e-01 1.2265750250127296e-02 0.0000000000000000e+00  -7.2971437930091110e-01 1.3278246939231797e-02 0.0000000000000000e+00  -7.5197854906526973e-01 1.4377625816961153e-02 0.0000000000000000e+00  -7.7607161485025411e-01 1.5574741967283834e-02 0.0000000000000000e+00  -8.0212515613776414e-01 1.6882288537174054e-02 0.0000000000000000e+00  -8.3028497430896453e-01 1.8315234907116517e-02 0.0000000000000000e+00  -8.6071373833368814e-01 1.9891397160387559e-02 0.0000000000000000e+00  -8.9359430337453494e-01 2.1632189938796731e-02 0.0000000000000000e+00  -9.2913391776141230e-01 2.3563630764101829e-02 0.0000000000000000e+00  -9.6756961852260792e-01 2.5717701665741981e-02 0.0000000000000000e+00  -1.0091752406630414e+00 2.8134225943053127e-02 0.0000000000000000e+00  -1.0542706531157708e+00 3.0863503123121194e-02 0.0000000000000000e+00  -1.1032341237524015e+00 3.3970086079009983e-02 0.0000000000000000e+00  -1.1565191675017210e+00 3.7538324604754141e-02 0.0000000000000000e+00  -1.2146779768449905e+00 4.1680724214048344e-02 0.0000000000000000e+00  -1.2783947089918659e+00 4.6550947519611981e-02 0.0000000000000000e+00  -1.3485341953453096e+00 5.2364800163666243e-02 0.0000000000000000e+00  -1.4262145415860514e+00 5.9435536160446188e-02 0.0000000000000000e+00  -1.5129221449509185e+00 6.8236455611418917e-02 0.0000000000000000e+00  -1.6106891311001348e+00 7.9519808294512440e-02 0.0000000000000000e+00  -1.7224124717293381e+00 9.4547729527637958e-02 0.0000000000000000e+00  -1.8523384337252449e+00 1.1563984126859581e-01 0.0000000000000000e+00  -2.0071926159089233e+00 1.4737587630175009e-01 0.0000000000000000e+00  -2.1951661482765226e+00 1.9880826082568279e-01 0.0000000000000000e+00  -2.4446854445174009e+00 2.9834274740161393e-01 0.0000000000000000e+00  -2.6725454583280981e+00 4.7005648689402590e-01 0.0000000000000000e+00  -3.1673689415215804e+00 8.6712300893254202e-01 0.0000000000000000e+00  -5.3017496245721685e-01 -9.7109819466365298e-07 0.0000000000000000e+00  -5.3058637920232476e-01 7.0874893073557806e-04 0.0000000000000000e+00  -5.3105604194302136e-01 1.4285673533221360e-03 0.0000000000000000e+00  -5.3196016200173457e-01 2.1556586963397528e-03 0.0000000000000000e+00  -5.3326226422668244e-01 2.8912757062794525e-03 0.0000000000000000e+00  -5.3500540043863409e-01 3.6406652017522420e-03 0.0000000000000000e+00  -5.3722057219347974e-01 4.4068455422377100e-03 0.0000000000000000e+00  -5.3994252327731895e-01 5.1936599432693088e-03 0.0000000000000000e+00  -5.4320753765302165e-01 6.0049626582284890e-03 0.0000000000000000e+00  -5.4705373763077381e-01 6.8448153125461727e-03 0.0000000000000000e+00  -5.5152116742035107e-01 7.7174987042897469e-03 0.0000000000000000e+00  -5.5665188948508493e-01 8.6275498457555437e-03 0.0000000000000000e+00  -5.6249010570251734e-01 9.5798023622669613e-03 0.0000000000000000e+00  -5.6908229707207214e-01 1.0579431340896492e-02 0.0000000000000000e+00  -5.7647738651587721e-01 1.1632004553941904e-02 0.0000000000000000e+00  -5.8472692779230784e-01 1.2743541281824332e-02 0.0000000000000000e+00  -5.9388532447039888e-01 1.3920580473846188e-02 0.0000000000000000e+00  -6.0401008377528798e-01 1.5170260344357160e-02 0.0000000000000000e+00  -6.1516211116762487e-01 1.6500412011038981e-02 0.0000000000000000e+00  -6.2740605283740736e-01 1.7919670441882227e-02 0.0000000000000000e+00  -6.4081069494143894e-01 1.9437606835842697e-02 0.0000000000000000e+00  -6.5544943049084070e-01 2.1064887686011412e-02 0.0000000000000000e+00  -6.7140080742840935e-01 2.2813467256969883e-02 0.0000000000000000e+00  -6.8874917480155540e-01 2.4696822179103912e-02 0.0000000000000000e+00  -7.0758544826788461e-01 2.6730239508683137e-02 0.0000000000000000e+00  -7.2800802178667212e-01 2.8931173188272739e-02 0.0000000000000000e+00  -7.5012385969556694e-01 3.1319688754005731e-02 0.0000000000000000e+00  -7.7404981305811504e-01 3.3919022940434827e-02 0.0000000000000000e+00  -7.9991421705985699e-01 3.6756294378267669e-02 0.0000000000000000e+00  -8.2785884355274852e-01 3.9863415144291113e-02 0.0000000000000000e+00  -8.5804130635819731e-01 4.3278272477726538e-02 0.0000000000000000e+00  -8.9063804918120693e-01 4.7046278606607990e-02 0.0000000000000000e+00  -9.2584809069673368e-01 5.1222429250487367e-02 0.0000000000000000e+00  -9.6389776402365357e-01 5.5874075985537369e-02 0.0000000000000000e+00  -1.0050467767026969e+00 6.1084717586593291e-02 0.0000000000000000e+00  -1.0495960442755212e+00 6.6959273368681585e-02 0.0000000000000000e+00  -1.0978979355779348e+00 7.3631557058529251e-02 0.0000000000000000e+00  -1.1503698312005490e+00 8.1275093940449655e-02 0.0000000000000000e+00  -1.2075123023018088e+00 9.0119148452204451e-02 0.0000000000000000e+00  -1.2699337096428220e+00 1.0047310522648288e-01 0.0000000000000000e+00  -1.3383840547769830e+00 1.1276466507870127e-01 0.0000000000000000e+00  -1.4138007638030747e+00 1.2760166263564129e-01 0.0000000000000000e+00  -1.4973743282103316e+00 1.4587592602616048e-01 0.0000000000000000e+00  -1.5906207988258461e+00 1.6894342548860516e-01 0.0000000000000000e+00  -1.6955220845575532e+00 1.9895324857698449e-01 0.0000000000000000e+00  -1.8144082049715402e+00 2.3945623192787774e-01 0.0000000000000000e+00  -1.9504832977634294e+00 2.9650386732819523e-01 0.0000000000000000e+00  -2.1043102763602990e+00 3.8112149304111276e-01 0.0000000000000000e+00  -2.2792468190133479e+00 5.1102108443704453e-01 0.0000000000000000e+00  -2.4291212790005341e+00 7.1399998679860843e-01 0.0000000000000000e+00  -2.6430360344950046e+00 1.0508179876819477e+00 0.0000000000000000e+00  -5.2918968995079030e-01 3.3031177596008541e-07 0.0000000000000000e+00  -5.2972921629265057e-01 1.0609631612760440e-03 0.0000000000000000e+00  -5.3015666885428758e-01 2.1252549176602963e-03 0.0000000000000000e+00  -5.3105927899273642e-01 3.1978849956051094e-03 0.0000000000000000e+00  -5.3234508619383147e-01 4.2853493120518175e-03 0.0000000000000000e+00  -5.3407000925679993e-01 5.3926454688317353e-03 0.0000000000000000e+00  -5.3626193348752704e-01 6.5248376760867139e-03 0.0000000000000000e+00  -5.3895606888126746e-01 7.6875120452707599e-03 0.0000000000000000e+00  -5.4218836579823171e-01 8.8863320030502027e-03 0.0000000000000000e+00  -5.4599671395840277e-01 1.0127283541743123e-02 0.0000000000000000e+00  -5.5042086268222568e-01 1.1416666800524687e-02 0.0000000000000000e+00  -5.5550253513162640e-01 1.2761159402095369e-02 0.0000000000000000e+00  -5.6128554219954019e-01 1.4167872723094705e-02 0.0000000000000000e+00  -5.6781591521915709e-01 1.5644417237208001e-02 0.0000000000000000e+00  -5.7514206046679894e-01 1.7198976741202580e-02 0.0000000000000000e+00  -5.8331493779222598e-01 1.8840393514687321e-02 0.0000000000000000e+00  -5.9238826705246173e-01 2.0578266869109928e-02 0.0000000000000000e+00  -6.0241876659620119e-01 2.2423068041126110e-02 0.0000000000000000e+00  -6.1346642896951320e-01 2.4386275114758105e-02 0.0000000000000000e+00  -6.2559484012508260e-01 2.6480532574146617e-02 0.0000000000000000e+00  -6.3887154979229743e-01 2.8719841280001657e-02 0.0000000000000000e+00  -6.5336850238069177e-01 3.1119786216928888e-02 0.0000000000000000e+00  -6.6916253993007735e-01 3.3697811396251338e-02 0.0000000000000000e+00  -6.8633599131447742e-01 3.6473553994758996e-02 0.0000000000000000e+00  -7.0497736531043087e-01 3.9469253406305319e-02 0.0000000000000000e+00  -7.2518216946069358e-01 4.2710255723167147e-02 0.0000000000000000e+00  -7.4705388218139135e-01 4.6225640745142987e-02 0.0000000000000000e+00  -7.7070511263381836e-01 5.0049007653852944e-02 0.0000000000000000e+00  -7.9625899198913364e-01 5.4219468045899090e-02 0.0000000000000000e+00  -8.2385085148291104e-01 5.8782912668810278e-02 0.0000000000000000e+00  -8.5363025789177294e-01 6.3793643328866625e-02 0.0000000000000000e+00  -8.8576349678510968e-01 6.9316497692665652e-02 0.0000000000000000e+00  -9.2043661933592669e-01 7.5429647764990379e-02 0.0000000000000000e+00  -9.5785920091729559e-01 8.2228331679515113e-02 0.0000000000000000e+00  -9.9826900030637933e-01 8.9829897520462040e-02 0.0000000000000000e+00  -1.0419377565548340e+00 9.8380720781855613e-02 0.0000000000000000e+00  -1.0891784139279994e+00 1.0806584291710303e-01 0.0000000000000000e+00  -1.1403541052734683e+00 1.1912263314962279e-01 0.0000000000000000e+00  -1.1958892342339329e+00 1.3186051190194845e-01 0.0000000000000000e+00  -1.2562828036954443e+00 1.4668998412714734e-01 0.0000000000000000e+00  -1.3221238278481120e+00 1.6416624426164850e-01 0.0000000000000000e+00  -1.3941064486274102e+00 1.8505598053249603e-01 0.0000000000000000e+00  -1.4730417672054281e+00 2.1044150337634895e-01 0.0000000000000000e+00  -1.5598420564178437e+00 2.4188509927090782e-01 0.0000000000000000e+00  -1.6554805920747322e+00 2.8168867809345072e-01 0.0000000000000000e+00  -1.7606698010652098e+00 3.3328499814935592e-01 0.0000000000000000e+00  -1.8757880140422321e+00 4.0182643384490624e-01 0.0000000000000000e+00  -1.9974183726194241e+00 4.9461946417335489e-01 0.0000000000000000e+00  -2.1246398764334709e+00 6.2121814239529738e-01 0.0000000000000000e+00  -2.2159074872820725e+00 7.9093523153693213e-01 0.0000000000000000e+00  -2.3476220369863650e+00 9.9062778137922802e-01 0.0000000000000000e+00  -5.2785655229440875e-01 3.4069547716019688e-07 0.0000000000000000e+00  -5.2851963316925954e-01 1.4068729771991738e-03 0.0000000000000000e+00  -5.2890455582876583e-01 2.8203788673947915e-03 0.0000000000000000e+00  -5.2980274495522894e-01 4.2469746852161101e-03 0.0000000000000000e+00  -5.3106611048042185e-01 5.6930847301636164e-03 0.0000000000000000e+00  -5.3276566927050628e-01 7.1652437235704899e-03 0.0000000000000000e+00  -5.3492523178003548e-01 8.6705224671745611e-03 0.0000000000000000e+00  -5.3758069495794536e-01 1.0216163052469996e-02 0.0000000000000000e+00  -5.4076749783734135e-01 1.1809694855438516e-02 0.0000000000000000e+00  -5.4452322839178569e-01 1.3459036959672746e-02 0.0000000000000000e+00  -5.4888722295234849e-01 1.5172523653656258e-02 0.0000000000000000e+00  -5.5390073865826561e-01 1.6958985353665794e-02 0.0000000000000000e+00  -5.5960704835740471e-01 1.8827819864706611e-02 0.0000000000000000e+00  -5.6605156564229508e-01 2.0789077635235582e-02 0.0000000000000000e+00  -5.7328198789080986e-01 2.2853557596520264e-02 0.0000000000000000e+00  -5.8134846110151994e-01 2.5032917105268372e-02 0.0000000000000000e+00  -5.9030376953138342e-01 2.7339798865791538e-02 0.0000000000000000e+00  -6.0020355365514333e-01 2.9787978546543390e-02 0.0000000000000000e+00  -6.1110656072244451e-01 3.2392537677164997e-02 0.0000000000000000e+00  -6.2307493302920414e-01 3.5170067533520630e-02 0.0000000000000000e+00  -6.3617454005349161e-01 3.8138911164481620e-02 0.0000000000000000e+00  -6.5047536186361177e-01 4.1319452586717785e-02 0.0000000000000000e+00  -6.6605193273465124e-01 4.4734464613844865e-02 0.0000000000000000e+00  -6.8298385577185483e-01 4.8409529987234863e-02 0.0000000000000000e+00  -7.0135640160400803e-01 5.2373554709552760e-02 0.0000000000000000e+00  -7.2126120696173934e-01 5.6659398126771648e-02 0.0000000000000000e+00  -7.4279709227768076e-01 6.1304651892395243e-02 0.0000000000000000e+00  -7.6607102142789807e-01 6.6352610245622543e-02 0.0000000000000000e+00  -7.9119923143020621e-01 7.1853488139080601e-02 0.0000000000000000e+00  -8.1830856532014895e-01 7.7865963263541130e-02 0.0000000000000000e+00  -8.4753804736620275e-01 8.4459145286880741e-02 0.0000000000000000e+00  -8.7904074575716584e-01 9.1715114143539847e-02 0.0000000000000000e+00  -9.1298597272443982e-01 9.9732224207406156e-02 0.0000000000000000e+00  -9.4956187321937646e-01 1.0862945055228454e-01 0.0000000000000000e+00  -9.8897844572829696e-01 1.1855216925765168e-01 0.0000000000000000e+00  -1.0314710120646626e+00 1.2967993415992374e-01 0.0000000000000000e+00  -1.0773040881457956e+00 1.4223706543186548e-01 0.0000000000000000e+00  -1.1267754602453353e+00 1.5650724270483082e-01 0.0000000000000000e+00  -1.1802199816049552e+00 1.7285385799750480e-01 0.0000000000000000e+00  -1.2380119421055129e+00 1.9174871312731639e-01 0.0000000000000000e+00  -1.3005638175013097e+00 2.1381283564122119e-01 0.0000000000000000e+00  -1.3683159886104859e+00 2.3987476238655903e-01 0.0000000000000000e+00  -1.4417101569624795e+00 2.7105341359105695e-01 0.0000000000000000e+00  -1.5211177848317192e+00 3.0887341407135016e-01 0.0000000000000000e+00  -1.6067247380807013e+00 3.5541675157363434e-01 0.0000000000000000e+00  -1.6981542443198683e+00 4.1349750451007500e-01 0.0000000000000000e+00  -1.7943189308046550e+00 4.8678167088296687e-01 0.0000000000000000e+00  -1.8909270880589366e+00 5.7962343393644522e-01 0.0000000000000000e+00  -1.9856623699861180e+00 6.9631532478225966e-01 0.0000000000000000e+00  -2.0494114739901819e+00 8.3712071233356689e-01 0.0000000000000000e+00  -2.1456194041989987e+00 9.9971846500939487e-01 0.0000000000000000e+00  -5.2618205228458603e-01 3.9439452563786597e-07 0.0000000000000000e+00  -5.2696619549418600e-01 1.7470388640619808e-03 0.0000000000000000e+00  -5.2730681137944557e-01 3.5021410008869223e-03 0.0000000000000000e+00  -5.2819603399386483e-01 5.2728681103215887e-03 0.0000000000000000e+00  -5.2943143523934921e-01 7.0675499010775843e-03 0.0000000000000000e+00  -5.3109855997440081e-01 8.8945867999771638e-03 0.0000000000000000e+00  -5.3321688855016214e-01 1.0762617988847376e-02 0.0000000000000000e+00  -5.3582308474964768e-01 1.2680561559163396e-02 0.0000000000000000e+00  -5.3895193663330532e-01 1.4657741983257418e-02 0.0000000000000000e+00  -5.4264066041960879e-01 1.6703926955832928e-02 0.0000000000000000e+00  -5.4692806746095191e-01 1.8829402357759286e-02 0.0000000000000000e+00  -5.5185483042188888e-01 2.1045057353986305e-02 0.0000000000000000e+00  -5.5746354615021632e-01 2.3362472139126764e-02 0.0000000000000000e+00  -5.6379885391585416e-01 2.5794020365509974e-02 0.0000000000000000e+00  -5.7090756381961616e-01 2.8352983941284854e-02 0.0000000000000000e+00  -5.7883880498761253e-01 3.1053684552885669e-02 0.0000000000000000e+00  -5.8764419484344843e-01 3.3911635006269515e-02 0.0000000000000000e+00  -5.9737803228854536e-01 3.6943714709054734e-02 0.0000000000000000e+00  -6.0809751800467748e-01 4.0168374514963294e-02 0.0000000000000000e+00  -6.1986300564690600e-01 4.3605877412045690e-02 0.0000000000000000e+00  -6.3273828834894352e-01 4.7278583130844418e-02 0.0000000000000000e+00  -6.4679092571103336e-01 5.1211286795041285e-02 0.0000000000000000e+00  -6.6209261729665281e-01 5.5431624379342195e-02 0.0000000000000000e+00  -6.7871962962372256e-01 5.9970561171266520e-02 0.0000000000000000e+00  -6.9675328468234465e-01 6.4862983919136294e-02 0.0000000000000000e+00  -7.16280