<?xml version="1.0"?>
<VTKFile type="UnstructuredGrid"  version="0.1"  >
<UnstructuredGrid>
<Piece  NumberOfPoints="2601" NumberOfCells="5000">
<Points>
<DataArray  type="Float64"  NumberOfComponents="3"  format="ascii">0 0 0  0.02 0 0  0.04 0 0  0.06 0 0  0.08 0 0  0.1 0 0  0.12 0 0  0.14 0 0  0.16 0 0  0.18 0 0  0.2 0 0  0.22 0 0  0.24 0 0  0.26 0 0  0.28 0 0  0.3 0 0  0.32 0 0  0.34 0 0  0.36 0 0  0.38 0 0  0.4 0 0  0.42 0 0  0.44 0 0  0.46 0 0  0.48 0 0  0.5 0 0  0.52 0 0  0.54 0 0  0.5600000000000001 0 0  0.58 0 0  0.6 0 0  0.62 0 0  0.64 0 0  0.66 0 0  0.68 0 0  0.7 0 0  0.72 0 0  0.74 0 0  0.76 0 0  0.78 0 0  0.8 0 0  0.82 0 0  0.84 0 0  0.86 0 0  0.88 0 0  0.9 0 0  0.92 0 0  0.9399999999999999 0 0  0.96 0 0  0.98 0 0  1 0 0  0 0.02 0  0.02 0.02 0  0.04 0.02 0  0.06 0.02 0  0.08 0.02 0  0.1 0.02 0  0.12 0.02 0  0.14 0.02 0  0.16 0.02 0  0.18 0.02 0  0.2 0.02 0  0.22 0.02 0  0.24 0.02 0  0.26 0.02 0  0.28 0.02 0  0.3 0.02 0  0.32 0.02 0  0.34 0.02 0  0.36 0.02 0  0.38 0.02 0  0.4 0.02 0  0.42 0.02 0  0.44 0.02 0  0.46 0.02 0  0.48 0.02 0  0.5 0.02 0  0.52 0.02 0  0.54 0.02 0  0.5600000000000001 0.02 0  0.58 0.02 0  0.6 0.02 0  0.62 0.02 0  0.64 0.02 0  0.66 0.02 0  0.68 0.02 0  0.7 0.02 0  0.72 0.02 0  0.74 0.02 0  0.76 0.02 0  0.78 0.02 0  0.8 0.02 0  0.82 0.02 0  0.84 0.02 0  0.86 0.02 0  0.88 0.02 0  0.9 0.02 0  0.92 0.02 0  0.9399999999999999 0.02 0  0.96 0.02 0  0.98 0.02 0  1 0.02 0  0 0.04 0  0.02 0.04 0  0.04 0.04 0  0.06 0.04 0  0.08 0.04 0  0.1 0.04 0  0.12 0.04 0  0.14 0.04 0  0.16 0.04 0  0.18 0.04 0  0.2 0.04 0  0.22 0.04 0  0.24 0.04 0  0.26 0.04 0  0.28 0.04 0  0.3 0.04 0  0.32 0.04 0  0.34 0.04 0  0.36 0.04 0  0.38 0.04 0  0.4 0.04 0  0.42 0.04 0  0.44 0.04 0  0.46 0.04 0  0.48 0.04 0  0.5 0.04 0  0.52 0.04 0  0.54 0.04 0  0.5600000000000001 0.04 0  0.58 0.04 0  0.6 0.04 0  0.62 0.04 0  0.64 0.04 0  0.66 0.04 0  0.68 0.04 0  0.7 0.04 0  0.72 0.04 0  0.74 0.04 0  0.76 0.04 0  0.78 0.04 0  0.8 0.04 0  0.82 0.04 0  0.84 0.04 0  0.86 0.04 0  0.88 0.04 0  0.9 0.04 0  0.92 0.04 0  0.9399999999999999 0.04 0  0.96 0.04 0  0.98 0.04 0  1 0.04 0  0 0.06 0  0.02 0.06 0  0.04 0.06 0  0.06 0.06 0  0.08 0.06 0  0.1 0.06 0  0.12 0.06 0  0.14 0.06 0  0.16 0.06 0  0.18 0.06 0  0.2 0.06 0  0.22 0.06 0  0.24 0.06 0  0.26 0.06 0  0.28 0.06 0  0.3 0.06 0  0.32 0.06 0  0.34 0.06 0  0.36 0.06 0  0.38 0.06 0  0.4 0.06 0  0.42 0.06 0  0.44 0.06 0  0.46 0.06 0  0.48 0.06 0  0.5 0.06 0  0.52 0.06 0  0.54 0.06 0  0.5600000000000001 0.06 0  0.58 0.06 0  0.6 0.06 0  0.62 0.06 0  0.64 0.06 0  0.66 0.06 0  0.68 0.06 0  0.7 0.06 0  0.72 0.06 0  0.74 0.06 0  0.76 0.06 0  0.78 0.06 0  0.8 0.06 0  0.82 0.06 0  0.84 0.06 0  0.86 0.06 0  0.88 0.06 0  0.9 0.06 0  0.92 0.06 0  0.9399999999999999 0.06 0  0.96 0.06 0  0.98 0.06 0  1 0.06 0  0 0.08 0  0.02 0.08 0  0.04 0.08 0  0.06 0.08 0  0.08 0.08 0  0.1 0.08 0  0.12 0.08 0  0.14 0.08 0  0.16 0.08 0  0.18 0.08 0  0.2 0.08 0  0.22 0.08 0  0.24 0.08 0  0.26 0.08 0  0.28 0.08 0  0.3 0.08 0  0.32 0.08 0  0.34 0.08 0  0.36 0.08 0  0.38 0.08 0  0.4 0.08 0  0.42 0.08 0  0.44 0.08 0  0.46 0.08 0  0.48 0.08 0  0.5 0.08 0  0.52 0.08 0  0.54 0.08 0  0.5600000000000001 0.08 0  0.58 0.08 0  0.6 0.08 0  0.62 0.08 0  0.64 0.08 0  0.66 0.08 0  0.68 0.08 0  0.7 0.08 0  0.72 0.08 0  0.74 0.08 0  0.76 0.08 0  0.78 0.08 0  0.8 0.08 0  0.82 0.08 0  0.84 0.08 0  0.86 0.08 0  0.88 0.08 0  0.9 0.08 0  0.92 0.08 0  0.9399999999999999 0.08 0  0.96 0.08 0  0.98 0.08 0  1 0.08 0  0 0.1 0  0.02 0.1 0  0.04 0.1 0  0.06 0.1 0  0.08 0.1 0  0.1 0.1 0  0.12 0.1 0  0.14 0.1 0  0.16 0.1 0  0.18 0.1 0  0.2 0.1 0  0.22 0.1 0  0.24 0.1 0  0.26 0.1 0  0.28 0.1 0  0.3 0.1 0  0.32 0.1 0  0.34 0.1 0  0.36 0.1 0  0.38 0.1 0  0.4 0.1 0  0.42 0.1 0  0.44 0.1 0  0.46 0.1 0  0.48 0.1 0  0.5 0.1 0  0.52 0.1 0  0.54 0.1 0  0.5600000000000001 0.1 0  0.58 0.1 0  0.6 0.1 0  0.62 0.1 0  0.64 0.1 0  0.66 0.1 0  0.68 0.1 0  0.7 0.1 0  0.72 0.1 0  0.74 0.1 0  0.76 0.1 0  0.78 0.1 0  0.8 0.1 0  0.82 0.1 0  0.84 0.1 0  0.86 0.1 0  0.88 0.1 0  0.9 0.1 0  0.92 0.1 0  0.9399999999999999 0.1 0  0.96 0.1 0  0.98 0.1 0  1 0.1 0  0 0.12 0  0.02 0.12 0  0.04 0.12 0  0.06 0.12 0  0.08 0.12 0  0.1 0.12 0  0.12 0.12 0  0.14 0.12 0  0.16 0.12 0  0.18 0.12 0  0.2 0.12 0  0.22 0.12 0  0.24 0.12 0  0.26 0.12 0  0.28 0.12 0  0.3 0.12 0  0.32 0.12 0  0.34 0.12 0  0.36 0.12 0  0.38 0.12 0  0.4 0.12 0  0.42 0.12 0  0.44 0.12 0  0.46 0.12 0  0.48 0.12 0  0.5 0.12 0  0.52 0.12 0  0.54 0.12 0  0.5600000000000001 0.12 0  0.58 0.12 0  0.6 0.12 0  0.62 0.12 0  0.64 0.12 0  0.66 0.12 0  0.68 0.12 0  0.7 0.12 0  0.72 0.12 0  0.74 0.12 0  0.76 0.12 0  0.78 0.12 0  0.8 0.12 0  0.82 0.12 0  0.84 0.12 0  0.86 0.12 0  0.88 0.12 0  0.9 0.12 0  0.92 0.12 0  0.9399999999999999 0.12 0  0.96 0.12 0  0.98 0.12 0  1 0.12 0  0 0.14 0  0.02 0.14 0  0.04 0.14 0  0.06 0.14 0  0.08 0.14 0  0.1 0.14 0  0.12 0.14 0  0.14 0.14 0  0.16 0.14 0  0.18 0.14 0  0.2 0.14 0  0.22 0.14 0  0.24 0.14 0  0.26 0.14 0  0.28 0.14 0  0.3 0.14 0  0.32 0.14 0  0.34 0.14 0  0.36 0.14 0  0.38 0.14 0  0.4 0.14 0  0.42 0.14 0  0.44 0.14 0  0.46 0.14 0  0.48 0.14 0  0.5 0.14 0  0.52 0.14 0  0.54 0.14 0  0.5600000000000001 0.14 0  0.58 0.14 0  0.6 0.14 0  0.62 0.14 0  0.64 0.14 0  0.66 0.14 0  0.68 0.14 0  0.7 0.14 0  0.72 0.14 0  0.74 0.14 0  0.76 0.14 0  0.78 0.14 0  0.8 0.14 0  0.82 0.14 0  0.84 0.14 0  0.86 0.14 0  0.88 0.14 0  0.9 0.14 0  0.92 0.14 0  0.9399999999999999 0.14 0  0.96 0.14 0  0.98 0.14 0  1 0.14 0  0 0.16 0  0.02 0.16 0  0.04 0.16 0  0.06 0.16 0  0.08 0.16 0  0.1 0.16 0  0.12 0.16 0  0.14 0.16 0  0.16 0.16 0  0.18 0.16 0  0.2 0.16 0  0.22 0.16 0  0.24 0.16 0  0.26 0.16 0  0.28 0.16 0  0.3 0.16 0  0.32 0.16 0  0.34 0.16 0  0.36 0.16 0  0.38 0.16 0  0.4 0.16 0  0.42 0.16 0  0.44 0.16 0  0.46 0.16 0  0.48 0.16 0  0.5 0.16 0  0.52 0.16 0  0.54 0.16 0  0.5600000000000001 0.16 0  0.58 0.16 0  0.6 0.16 0  0.62 0.16 0  0.64 0.16 0  0.66 0.16 0  0.68 0.16 0  0.7 0.16 0  0.72 0.16 0  0.74 0.16 0  0.76 0.16 0  0.78 0.16 0  0.8 0.16 0  0.82 0.16 0  0.84 0.16 0  0.86 0.16 0  0.88 0.16 0  0.9 0.16 0  0.92 0.16 0  0.9399999999999999 0.16 0  0.96 0.16 0  0.98 0.16 0  1 0.16 0  0 0.18 0  0.02 0.18 0  0.04 0.18 0  0.06 0.18 0  0.08 0.18 0  0.1 0.18 0  0.12 0.18 0  0.14 0.18 0  0.16 0.18 0  0.18 0.18 0  0.2 0.18 0  0.22 0.18 0  0.24 0.18 0  0.26 0.18 0  0.28 0.18 0  0.3 0.18 0  0.32 0.18 0  0.34 0.18 0  0.36 0.18 0  0.38 0.18 0  0.4 0.18 0  0.42 0.18 0  0.44 0.18 0  0.46 0.18 0  0.48 0.18 0  0.5 0.18 0  0.52 0.18 0  0.54 0.18 0  0.5600000000000001 0.18 0  0.58 0.18 0  0.6 0.18 0  0.62 0.18 0  0.64 0.18 0  0.66 0.18 0  0.68 0.18 0  0.7 0.18 0  0.72 0.18 0  0.74 0.18 0  0.76 0.18 0  0.78 0.18 0  0.8 0.18 0  0.82 0.18 0  0.84 0.18 0  0.86 0.18 0  0.88 0.18 0  0.9 0.18 0  0.92 0.18 0  0.9399999999999999 0.18 0  0.96 0.18 0  0.98 0.18 0  1 0.18 0  0 0.2 0  0.02 0.2 0  0.04 0.2 0  0.06 0.2 0  0.08 0.2 0  0.1 0.2 0  0.12 0.2 0  0.14 0.2 0  0.16 0.2 0  0.18 0.2 0  0.2 0.2 0  0.22 0.2 0  0.24 0.2 0  0.26 0.2 0  0.28 0.2 0  0.3 0.2 0  0.32 0.2 0  0.34 0.2 0  0.36 0.2 0  0.38 0.2 0  0.4 0.2 0  0.42 0.2 0  0.44 0.2 0  0.46 0.2 0  0.48 0.2 0  0.5 0.2 0  0.52 0.2 0  0.54 0.2 0  0.5600000000000001 0.2 0  0.58 0.2 0  0.6 0.2 0  0.62 0.2 0  0.64 0.2 0  0.66 0.2 0  0.68 0.2 0  0.7 0.2 0  0.72 0.2 0  0.74 0.2 0  0.76 0.2 0  0.78 0.2 0  0.8 0.2 0  0.82 0.2 0  0.84 0.2 0  0.86 0.2 0  0.88 0.2 0  0.9 0.2 0  0.92 0.2 0  0.9399999999999999 0.2 0  0.96 0.2 0  0.98 0.2 0  1 0.2 0  0 0.22 0  0.02 0.22 0  0.04 0.22 0  0.06 0.22 0  0.08 0.22 0  0.1 0.22 0  0.12 0.22 0  0.14 0.22 0  0.16 0.22 0  0.18 0.22 0  0.2 0.22 0  0.22 0.22 0  0.24 0.22 0  0.26 0.22 0  0.28 0.22 0  0.3 0.22 0  0.32 0.22 0  0.34 0.22 0  0.36 0.22 0  0.38 0.22 0  0.4 0.22 0  0.42 0.22 0  0.44 0.22 0  0.46 0.22 0  0.48 0.22 0  0.5 0.22 0  0.52 0.22 0  0.54 0.22 0  0.5600000000000001 0.22 0  0.58 0.22 0  0.6 0.22 0  0.62 0.22 0  0.64 0.22 0  0.66 0.22 0  0.68 0.22 0  0.7 0.22 0  0.72 0.22 0  0.74 0.22 0  0.76 0.22 0  0.78 0.22 0  0.8 0.22 0  0.82 0.22 0  0.84 0.22 0  0.86 0.22 0  0.88 0.22 0  0.9 0.22 0  0.92 0.22 0  0.9399999999999999 0.22 0  0.96 0.22 0  0.98 0.22 0  1 0.22 0  0 0.24 0  0.02 0.24 0  0.04 0.24 0  0.06 0.24 0  0.08 0.24 0  0.1 0.24 0  0.12 0.24 0  0.14 0.24 0  0.16 0.24 0  0.18 0.24 0  0.2 0.24 0  0.22 0.24 0  0.24 0.24 0  0.26 0.24 0  0.28 0.24 0  0.3 0.24 0  0.32 0.24 0  0.34 0.24 0  0.36 0.24 0  0.38 0.24 0  0.4 0.24 0  0.42 0.24 0  0.44 0.24 0  0.46 0.24 0  0.48 0.24 0  0.5 0.24 0  0.52 0.24 0  0.54 0.24 0  0.5600000000000001 0.24 0  0.58 0.24 0  0.6 0.24 0  0.62 0.24 0  0.64 0.24 0  0.66 0.24 0  0.68 0.24 0  0.7 0.24 0  0.72 0.24 0  0.74 0.24 0  0.76 0.24 0  0.78 0.24 0  0.8 0.24 0  0.82 0.24 0  0.84 0.24 0  0.86 0.24 0  0.88 0.24 0  0.9 0.24 0  0.92 0.24 0  0.9399999999999999 0.24 0  0.96 0.24 0  0.98 0.24 0  1 0.24 0  0 0.26 0  0.02 0.26 0  0.04 0.26 0  0.06 0.26 0  0.08 0.26 0  0.1 0.26 0  0.12 0.26 0  0.14 0.26 0  0.16 0.26 0  0.18 0.26 0  0.2 0.26 0  0.22 0.26 0  0.24 0.26 0  0.26 0.26 0  0.28 0.26 0  0.3 0.26 0  0.32 0.26 0  0.34 0.26 0  0.36 0.26 0  0.38 0.26 0  0.4 0.26 0  0.42 0.26 0  0.44 0.26 0  0.46 0.26 0  0.48 0.26 0  0.5 0.26 0  0.52 0.26 0  0.54 0.26 0  0.5600000000000001 0.26 0  0.58 0.26 0  0.6 0.26 0  0.62 0.26 0  0.64 0.26 0  0.66 0.26 0  0.68 0.26 0  0.7 0.26 0  0.72 0.26 0  0.74 0.26 0  0.76 0.26 0  0.78 0.26 0  0.8 0.26 0  0.82 0.26 0  0.84 0.26 0  0.86 0.26 0  0.88 0.26 0  0.9 0.26 0  0.92 0.26 0  0.9399999999999999 0.26 0  0.96 0.26 0  0.98 0.26 0  1 0.26 0  0 0.28 0  0.02 0.28 0  0.04 0.28 0  0.06 0.28 0  0.08 0.28 0  0.1 0.28 0  0.12 0.28 0  0.14 0.28 0  0.16 0.28 0  0.18 0.28 0  0.2 0.28 0  0.22 0.28 0  0.24 0.28 0  0.26 0.28 0  0.28 0.28 0  0.3 0.28 0  0.32 0.28 0  0.34 0.28 0  0.36 0.28 0  0.38 0.28 0  0.4 0.28 0  0.42 0.28 0  0.44 0.28 0  0.46 0.28 0  0.48 0.28 0  0.5 0.28 0  0.52 0.28 0  0.54 0.28 0  0.5600000000000001 0.28 0  0.58 0.28 0  0.6 0.28 0  0.62 0.28 0  0.64 0.28 0  0.66 0.28 0  0.68 0.28 0  0.7 0.28 0  0.72 0.28 0  0.74 0.28 0  0.76 0.28 0  0.78 0.28 0  0.8 0.28 0  0.82 0.28 0  0.84 0.28 0  0.86 0.28
[...]
<PointData  Vectors="f_458"> 
<DataArray  type="Float64"  Name="f_458"  NumberOfComponents="3" format="ascii">-5.2392409287661501e-01 -2.3674568353353619e-05 0.0000000000000000e+00  -5.2413586810306967e-01 1.0413264528350243e-04 0.0000000000000000e+00  -5.2465410217139008e-01 2.0204956782725846e-04 0.0000000000000000e+00  -5.2555738935793661e-01 3.0371217638624305e-04 0.0000000000000000e+00  -5.2687619946705100e-01 4.0675251363637060e-04 0.0000000000000000e+00  -5.2864238271044173e-01 5.1162267547379364e-04 0.0000000000000000e+00  -5.3089063196829078e-01 6.1894092420464782e-04 0.0000000000000000e+00  -5.3365715545417547e-01 7.2922234376591869e-04 0.0000000000000000e+00  -5.3697997071760328e-01 8.4302737578488237e-04 0.0000000000000000e+00  -5.4089895339595873e-01 9.6094074906372898e-04 0.0000000000000000e+00  -5.4545592124857045e-01 1.0835790303464110e-03 0.0000000000000000e+00  -5.5069473965503013e-01 1.2115961164237052e-03 0.0000000000000000e+00  -5.5666144492739156e-01 1.3456889439141448e-03 0.0000000000000000e+00  -5.6340438928129422e-01 1.4866040671713326e-03 0.0000000000000000e+00  -5.7097441000215610e-01 1.6351451117542497e-03 0.0000000000000000e+00  -5.7942502630890669e-01 1.7921813489005845e-03 0.0000000000000000e+00  -5.8881266820453149e-01 1.9586576425440062e-03 0.0000000000000000e+00  -5.9919694256471423e-01 2.1356060807161286e-03 0.0000000000000000e+00  -6.1064094291306203e-01 2.3241596787355974e-03 0.0000000000000000e+00  -6.2321161082466237e-01 2.5255686410438857e-03 0.0000000000000000e+00  -6.3698015878181602e-01 2.7412197977582328e-03 0.0000000000000000e+00  -6.5202256669690695e-01 2.9726600018067607e-03 0.0000000000000000e+00  -6.6842016737791343e-01 3.2216244978381923e-03 0.0000000000000000e+00  -6.8626034016605775e-01 3.4900715751788650e-03 0.0000000000000000e+00  -7.0563733712028476e-01 3.7802252216299513e-03 0.0000000000000000e+00  -7.2665327289015191e-01 4.0946280481110727e-03 0.0000000000000000e+00  -7.4941931839549658e-01 4.4362075151630443e-03 0.0000000000000000e+00  -7.7405715047552837e-01 4.8083595535417115e-03 0.0000000000000000e+00  -8.0070072600971554e-01 5.2150551716076098e-03 0.0000000000000000e+00  -8.2949847145761824e-01 5.6609777928454952e-03 0.0000000000000000e+00  -8.6061601001253840e-01 6.1517021977824963e-03 0.0000000000000000e+00  -8.9423959270578812e-01 6.6939305820637104e-03 0.0000000000000000e+00  -9.3058046317644538e-01 7.2958082382739656e-03 0.0000000000000000e+00  -9.6988047836816060e-01 7.9673521455189602e-03 0.0000000000000000e+00  -1.0124194454841839e+00 8.7210427305298068e-03 0.0000000000000000e+00  -1.0585248448825286e+00 9.5726565144903120e-03 0.0000000000000000e+00  -1.1085849383985995e+00 1.0542463076748679e-02 0.0000000000000000e+00  -1.1630667772920857e+00 1.1656988136536159e-02 0.0000000000000000e+00  -1.2225415319815753e+00 1.2951686324486322e-02 0.0000000000000000e+00  -1.2877208835924630e+00 1.4475127173137510e-02 0.0000000000000000e+00  -1.3595115394168880e+00 1.6295820291876227e-02 0.0000000000000000e+00  -1.4390972794218191e+00 1.8514027722603681e-02 0.0000000000000000e+00  -1.5280782599624745e+00 2.1282971235721048e-02 0.0000000000000000e+00  -1.6286749799590174e+00 2.4852722819972098e-02 0.0000000000000000e+00  -1.7442611962666290e+00 2.9683558421605864e-02 0.0000000000000000e+00  -1.8795560219193996e+00 3.6618694348239438e-02 0.0000000000000000e+00  -2.0458421092757559e+00 4.8504332393280912e-02 0.0000000000000000e+00  -2.2508662796779086e+00 7.2158014198921469e-02 0.0000000000000000e+00  -2.5707688536915265e+00 1.3581359804693813e-01 0.0000000000000000e+00  -3.0958626096823161e+00 4.5898018317729156e-01 0.0000000000000000e+00  -3.9232455941562083e+00 1.3368151946207025e+00 0.0000000000000000e+00  -5.2369573385307933e-01 7.2972187019533510e-06 0.0000000000000000e+00  -5.2397671805186219e-01 3.4464916327908040e-04 0.0000000000000000e+00  -5.2447537852062154e-01 6.6529324430934615e-04 0.0000000000000000e+00  -5.2538003812418066e-01 9.9632349952611136e-04 0.0000000000000000e+00  -5.2669573660446978e-01 1.3301784312646726e-03 0.0000000000000000e+00  -5.2845822099676243e-01 1.6704198800568547e-03 0.0000000000000000e+00  -5.3070187450060191e-01 2.0184610570608001e-03 0.0000000000000000e+00  -5.3346284667205257e-01 2.3760234659743573e-03 0.0000000000000000e+00  -5.3677912880924494e-01 2.7448926108999162e-03 0.0000000000000000e+00  -5.4069054330718791e-01 3.1269346457593874e-03 0.0000000000000000e+00  -5.4523884905454045e-01 3.5241200270539957e-03 0.0000000000000000e+00  -5.5046784276471750e-01 3.9385384276697920e-03 0.0000000000000000e+00  -5.5642348146475717e-01 4.3724176616871616e-03 0.0000000000000000e+00  -5.6315402613829968e-01 4.8281446318982225e-03 0.0000000000000000e+00  -5.7071020915489512e-01 5.3082891886170906e-03 0.0000000000000000e+00  -5.7914542902632060e-01 5.8156315805669139e-03 0.0000000000000000e+00  -5.8851597666742972e-01 6.3531942987065902e-03 0.0000000000000000e+00  -5.9888129830514203e-01 6.9242793125265526e-03 0.0000000000000000e+00  -6.1030430133748770e-01 7.5325119373183839e-03 0.0000000000000000e+00  -6.2285171089276370e-01 8.1818928876944471e-03 0.0000000000000000e+00  -6.3659448666261320e-01 8.8768604857333427e-03 0.0000000000000000e+00  -6.5160831189396407e-01 9.6223655342981169e-03 0.0000000000000000e+00  -6.6797416937747289e-01 1.0423962083993170e-02 0.0000000000000000e+00  -6.8577902307455629e-01 1.1287918280217251e-02 0.0000000000000000e+00  -7.0511662896419014e-01 1.2221352767329580e-02 0.0000000000000000e+00  -7.2608850516354573e-01 1.3232403884007198e-02 0.0000000000000000e+00  -7.4880509993857891e-01 1.4330441302583563e-02 0.0000000000000000e+00  -7.7338720766096880e-01 1.5526333134165229e-02 0.0000000000000000e+00  -7.9996769822431224e-01 1.6832786276413797e-02 0.0000000000000000e+00  -8.2869364655931077e-01 1.8264784586625095e-02 0.0000000000000000e+00  -8.5972897813768390e-01 1.9840159353066149e-02 0.0000000000000000e+00  -8.9325778741270778e-01 2.1580341152473689e-02 0.0000000000000000e+00  -9.2948854465212460e-01 2.3511364173116799e-02 0.0000000000000000e+00  -9.6865949135005047e-01 2.5665227844340378e-02 0.0000000000000000e+00  -1.0110456494085700e+00 2.8081773601486466e-02 0.0000000000000000e+00  -1.0569680570208726e+00 3.0811319848235798e-02 0.0000000000000000e+00  -1.1068061336273733e+00 3.3918439082897218e-02 0.0000000000000000e+00  -1.1610145280636770e+00 3.7487501487793180e-02 0.0000000000000000e+00  -1.2201465489335472e+00 4.1631033753348555e-02 0.0000000000000000e+00  -1.2848874524365763e+00 4.6502720502221290e-02 0.0000000000000000e+00  -1.3561031498614953e+00 5.2318390299277644e-02 0.0000000000000000e+00  -1.4349128159578632e+00 5.9391321137406743e-02 0.0000000000000000e+00  -1.5228038765943803e+00 6.8194838419136941e-02 0.0000000000000000e+00  -1.6218095591235036e+00 7.9481219066010383e-02 0.0000000000000000e+00  -1.7348275917520346e+00 9.4512628439687191e-02 0.0000000000000000e+00  -1.8661062045503740e+00 1.1560872383828383e-01 0.0000000000000000e+00  -2.0223684703607945e+00 1.4734928419506846e-01 0.0000000000000000e+00  -2.2118196897600400e+00 1.9878680564443196e-01 0.0000000000000000e+00  -2.4628358336202569e+00 2.9832717750593390e-01 0.0000000000000000e+00  -2.6924247751834431e+00 4.7004777151833371e-01 0.0000000000000000e+00  -3.1883082490737533e+00 8.6712276624792306e-01 0.0000000000000000e+00  -5.2305792620802660e-01 -9.6538114795493543e-07 0.0000000000000000e+00  -5.2346746233795216e-01 7.0492240089551771e-04 0.0000000000000000e+00  -5.2393661664325530e-01 1.4208661339335108e-03 0.0000000000000000e+00  -5.2484138388694479e-01 2.1440660752480973e-03 0.0000000000000000e+00  -5.2614721471396309e-01 2.8757792514201722e-03 0.0000000000000000e+00  -5.2789867803080370e-01 3.6212394790673193e-03 0.0000000000000000e+00  -5.3012835633764621e-01 4.3834655782197026e-03 0.0000000000000000e+00  -5.3287255596017702e-01 5.1662988523106176e-03 0.0000000000000000e+00  -5.3616911628498232e-01 5.9735938213415964e-03 0.0000000000000000e+00  -5.4005770612197912e-01 6.8094136487286917e-03 0.0000000000000000e+00  -5.4457990671734757e-01 7.6780420714959554e-03 0.0000000000000000e+00  -5.4977930758400428e-01 8.5840204441434646e-03 0.0000000000000000e+00  -5.5570162711901294e-01 9.5321881456580122e-03 0.0000000000000000e+00  -5.6239485179117632e-01 1.0527727440008612e-02 0.0000000000000000e+00  -5.6990939843560096e-01 1.1576214710880243e-02 0.0000000000000000e+00  -5.7829830267728499e-01 1.2683679296478628e-02 0.0000000000000000e+00  -5.8761743743253425e-01 1.3856671662397877e-02 0.0000000000000000e+00  -5.9792576629890315e-01 1.5102343009933962e-02 0.0000000000000000e+00  -6.0928563769770216e-01 1.6428538926859932e-02 0.0000000000000000e+00  -6.2176312694956981e-01 1.7843910346580075e-02 0.0000000000000000e+00  -6.3542843511353742e-01 1.9358045941015214e-02 0.0000000000000000e+00  -6.5035635549637183e-01 2.0981631195868742e-02 0.0000000000000000e+00  -6.6662682137217455e-01 2.2726640899530665e-02 0.0000000000000000e+00  -6.8432555181888011e-01 2.4606573748559093e-02 0.0000000000000000e+00  -7.0354481690848514e-01 2.6636740418296875e-02 0.0000000000000000e+00  -7.2438434910500804e-01 2.8834620033147705e-02 0.0000000000000000e+00  -7.4695243506940012e-01 3.1220304882668738e-02 0.0000000000000000e+00  -7.7136723175705790e-01 3.3817060034344967e-02 0.0000000000000000e+00  -7.9775836358564733e-01 3.6652034038079054e-02 0.0000000000000000e+00  -8.2626887477333888e-01 3.9757170481847577e-02 0.0000000000000000e+00  -8.5705763445701577e-01 4.3170389712598754e-02 0.0000000000000000e+00  -8.9030232444336377e-01 4.6937138666366771e-02 0.0000000000000000e+00  -9.2620318415359371e-01 5.1112449374212651e-02 0.0000000000000000e+00  -9.6498774997784043e-01 5.5763711330699878e-02 0.0000000000000000e+00  -1.0069169151541384e+00 6.0974462840665988e-02 0.0000000000000000e+00  -1.0522927632769146e+00 6.6849664368778872e-02 0.0000000000000000e+00  -1.1014688135239090e+00 7.3523172425304012e-02 0.0000000000000000e+00  -1.1548635791528554e+00 8.1168556737744132e-02 0.0000000000000000e+00  -1.2129787461009311e+00 9.0015127892179692e-02 0.0000000000000000e+00  -1.2764237728973769e+00 1.0037231845444146e-01 0.0000000000000000e+00  -1.3459497388368662e+00 1.1266787909659924e-01 0.0000000000000000e+00  -1.4224951395431593e+00 1.2750969646845153e-01 0.0000000000000000e+00  -1.5072514843998879e+00 1.4578965331904128e-01 0.0000000000000000e+00  -1.6017359545554781e+00 1.6886377788350282e-01 0.0000000000000000e+00  -1.7079310873782896e+00 1.9888122053723117e-01 0.0000000000000000e+00  -1.8281693366744753e+00 2.3939288829482527e-01 0.0000000000000000e+00  -1.9656504404065036e+00 2.9645035608100695e-01 0.0000000000000000e+00  -2.1209582278637060e+00 3.8107906762670296e-01 0.0000000000000000e+00  -2.2973779069251963e+00 5.1099114132791945e-01 0.0000000000000000e+00  -2.4490066663562389e+00 7.1398410778177024e-01 0.0000000000000000e+00  -2.6639672341392635e+00 1.0508179501259896e+00 0.0000000000000000e+00  -5.2207792446156021e-01 3.2914040254549374e-07 0.0000000000000000e+00  -5.2261489737274580e-01 1.0552980712121465e-03 0.0000000000000000e+00  -5.2304204620846761e-01 2.1139214338978529e-03 0.0000000000000000e+00  -5.2394527966709969e-01 3.1808682300405217e-03 0.0000000000000000e+00  -5.2523485218147481e-01 4.2626191651546118e-03 0.0000000000000000e+00  -5.2696813058473790e-01 5.3641668492721483e-03 0.0000000000000000e+00  -5.2917459471722583e-01 6.4905726740493840e-03 0.0000000000000000e+00  -5.3189101212467205e-01 7.6474203098743053e-03 0.0000000000000000e+00  -5.3515488750831830e-01 8.8403735898924078e-03 0.0000000000000000e+00  -5.3900565527538469e-01 1.0075420712645456e-02 0.0000000000000000e+00  -5.4348460006578858e-01 1.1358866137027161e-02 0.0000000000000000e+00  -5.4863497035144426e-01 1.2697393871690943e-02 0.0000000000000000e+00  -5.5450209179148291e-01 1.4098123770710054e-02 0.0000000000000000e+00  -5.6113349942130208e-01 1.5568676892708883e-02 0.0000000000000000e+00  -5.6857909164858067e-01 1.7117249744186720e-02 0.0000000000000000e+00  -5.7689130839304126e-01 1.8752699456871882e-02 0.0000000000000000e+00  -5.8612533704727876e-01 2.0484642354944422e-02 0.0000000000000000e+00  -5.9633935050540610e-01 2.2323568866629374e-02 0.0000000000000000e+00  -6.0759478243178022e-01 2.4280978464756669e-02 0.0000000000000000e+00  -6.1995664605210776e-01 2.6369539237950941e-02 0.0000000000000000e+00  -6.3349390412536133e-01 2.8603277885394549e-02 0.0000000000000000e+00  -6.4827989946925701e-01 3.0997807482024013e-02 0.0000000000000000e+00  -6.6439285755328958e-01 3.3570602398874487e-02 0.0000000000000000e+00  -6.8191647536685451e-01 3.6341332458582939e-02 0.0000000000000000e+00  -7.0094061417303377e-01 3.9332272002754430e-02 0.0000000000000000e+00  -7.2156211807976289e-01 4.2568804388045452e-02 0.0000000000000000e+00  -7.4388578587653120e-01 4.6080049008621664e-02 0.0000000000000000e+00  -7.6802553065732937e-01 4.9899646982261188e-02 0.0000000000000000e+00  -7.9410577085871481e-01 5.4066754193648800e-02 0.0000000000000000e+00  -8.2226310810931713e-01 5.8627308038584271e-02 0.0000000000000000e+00  -8.5264836252326026e-01 6.3635659338538861e-02 0.0000000000000000e+00  -8.8542905578964826e-01 6.9156697147161494e-02 0.0000000000000000e+00  -9.2079245784238739e-01 7.5268647232086427e-02 0.0000000000000000e+00  -9.5894934533647036e-01 8.2066803869242741e-02 0.0000000000000000e+00  -1.0001386607510623e+00 8.9668573669147988e-02 0.0000000000000000e+00  -1.0446333091840077e+00 9.8220393044074719e-02 0.0000000000000000e+00  -1.0927473832172718e+00 1.0790736677249124e-01 0.0000000000000000e+00  -1.1448451462998701e+00 1.1896692983704811e-01 0.0000000000000000e+00  -1.2013521147406987e+00 1.3170857090277824e-01 0.0000000000000000e+00  -1.2627683869102062e+00 1.4654286573406389e-01 0.0000000000000000e+00  -1.3296840524951152e+00 1.6402508229339829e-01 0.0000000000000000e+00  -1.4027943195360479e+00 1.8492198529462975e-01 0.0000000000000000e+00  -1.4829113063260204e+00 2.1031596503246883e-01 0.0000000000000000e+00  -1.5709484019701114e+00 2.4176939189496752e-01 0.0000000000000000e+00  -1.6678795424867914e+00 2.8158426482851218e-01 0.0000000000000000e+00  -1.7744194365835095e+00 3.3319343810469221e-01 0.0000000000000000e+00  -1.8909425163331401e+00 4.0174939143667232e-01 0.0000000000000000e+00  -2.0140511599932118e+00 4.9455872096244041e-01 0.0000000000000000e+00  -2.1427563210158813e+00 6.2117560835081420e-01 0.0000000000000000e+00  -2.2357733486325113e+00 7.9091293576272059e-01 0.0000000000000000e+00  -2.3685292958227397e+00 9.9062786263340441e-01 0.0000000000000000e+00  -5.2075188595167421e-01 3.3977425677290296e-07 0.0000000000000000e+00  -5.2141175528232142e-01 1.3993876670942232e-03 0.0000000000000000e+00  -5.2179657201057073e-01 2.8053916949523235e-03 0.0000000000000000e+00  -5.2269536321476640e-01 4.2244555892638246e-03 0.0000000000000000e+00  -5.2396254462999559e-01 5.6629944880361004e-03 0.0000000000000000e+00  -5.2567049872865201e-01 7.1275363085271494e-03 0.0000000000000000e+00  -5.2784464838973577e-01 8.6251461819644454e-03 0.0000000000000000e+00  -5.3052244090134604e-01 1.0163063685926286e-02 0.0000000000000000e+00  -5.3374086836864032e-01 1.1748818483627651e-02 0.0000000000000000e+00  -5.3753906082121528e-01 1.3390332545500845e-02 0.0000000000000000e+00  -5.4195788754015339e-01 1.5095945848794066e-02 0.0000000000000000e+00  -5.4704012853531936e-01 1.6874497250234322e-02 0.0000000000000000e+00  -5.5283056896962590e-01 1.8735395789241955e-02 0.0000000000000000e+00  -5.5937612366581491e-01 2.0688705961157971e-02 0.0000000000000000e+00  -5.6672597964043070e-01 2.2745243580747906e-02 0.0000000000000000e+00  -5.7493176044851602e-01 2.4916685748666942e-02 0.0000000000000000e+00  -5.8404771534752553e-01 2.7215697797862114e-02 0.0000000000000000e+00  -5.9413093680104634e-01 2.9656080934876296e-02 0.0000000000000000e+00  -6.0524161059878689e-01 3.2252945161789510e-02 0.0000000000000000e+00  -6.1744330370985745e-01 3.5022913186042698e-02 0.0000000000000000e+00  -6.3080329602073293e-01 3.7984362471967285e-02 0.0000000000000000e+00  -6.4539296336580143e-01 4.1157714459902121e-02 0.0000000000000000e+00  -6.6128822078762362e-01 4.4565782419083981e-02 0.0000000000000000e+00  -6.7857003682523886e-01 4.8234192601077294e-02 0.0000000000000000e+00  -6.9732503189445627e-01 5.2191897594998697e-02 0.0000000000000000e+00  -7.1764617657494023e-01 5.6471806429437901e-02 0.0000000000000000e+00  -7.3963360894168939e-01 6.1111563554882779e-02 0.0000000000000000e+00  -7.6339559405946433e-01 6.6154519137922696e-02 0.0000000000000000e+00  -7.8904965345670419e-01 7.1650947202756970e-02 0.0000000000000000e+00  -8.1672389779860755e-01 7.7659587666909252e-02 0.0000000000000000e+00  -8.4655860192109711e-01 8.4249615588806351e-02 0.0000000000000000e+00  -8.7870806735807561e-01 9.1503179463268539e-02 0.0000000000000000e+00  -9.1334282232380470e-01 9.9518705398252527e-02 0.0000000000000000e+00  -9.5065221027033064e-01 1.0841524337780815e-01 0.0000000000000000e+00  -9.9084741060012471e-01 1.1833824757029567e-01 0.0000000000000000e+00  -1.0341649083781024e+00 1.2946735308404811e-01 0.0000000000000000e+00  -1.0808703650257594e+00 1.4202696455656563e-01 0.0000000000000000e+00  -1.1312626945733557e+00 1.5630084929698959e-01 0.0000000000000000e+00  -1.1856778600221958e+00 1.7265249025324683e-01 0.0000000000000000e+00  -1.2444912437388689e+00 1.9155378349171343e-01 0.0000000000000000e+00  -1.3081163937670046e+00 2.1362585424316530e-01 0.0000000000000000e+00  -1.3769947536894991e+00 2.3969734066029957e-01 0.0000000000000000e+00  -1.4515690377879975e+00 2.7088726818817349e-01 0.0000000000000000e+00  -1.5322118218416414e+00 3.0872037120420787e-01 0.0000000000000000e+00  -1.6191096192629815e+00 3.5527875194559683e-01 0.0000000000000000e+00  -1.7118879571930370e+00 4.1337660893379768e-01 0.0000000000000000e+00  -1.8094554820740669e+00 4.8668006631310468e-01 0.0000000000000000e+00  -1.9075398762515896e+00 5.7954343873720382e-01 0.0000000000000000e+00  -2.0037566527984212e+00 6.9625938914670893e-01 0.0000000000000000e+00  -2.0692516286837321e+00 8.3709140945486249e-01 0.0000000000000000e+00  -2.1665038929916216e+00 9.9971843549362360e-01 0.0000000000000000e+00  -5.1908629437911713e-01 3.9334485412220216e-07 0.0000000000000000e+00  -5.1986657343325371e-01 1.7377471840302270e-03 0.0000000000000000e+00  -5.2020728618265355e-01 3.4835379154609784e-03 0.0000000000000000e+00  -5.2109710180322588e-01 5.2449189235887405e-03 0.0000000000000000e+00  -5.2233638071284483e-01 7.0302062695143924e-03 0.0000000000000000e+00  -5.2401195305258685e-01 8.8477902217691511e-03 0.0000000000000000e+00  -5.2614492994855122e-01 1.0706303376904714e-02 0.0000000000000000e+00  -5.2877351682107865e-01 1.2614660736576680e-02 0.0000000000000000e+00  -5.3193405319470899e-01 1.4582186922247544e-02 0.0000000000000000e+00  -5.3566529392197870e-01 1.6618653197242105e-02 0.0000000000000000e+00  -5.4000758028732221e-01 1.8734352446741785e-02 0.0000000000000000e+00  -5.4500310468621871e-01 2.0940184283497580e-02 0.0000000000000000e+00  -5.5069597313632490e-01 2.3247742834777523e-02 0.0000000000000000e+00  -5.5713232296277160e-01 2.5669419194483484e-02 0.0000000000000000e+00  -5.6436045070376450e-01 2.8218516252063220e-02 0.0000000000000000e+00  -5.7243095981331182e-01 3.0909380244921219e-02 0.0000000000000000e+00  -5.8139692945927635e-01 3.3757552130358241e-02 0.0000000000000000e+00  -5.9131410724762445e-01 3.6779943098832951e-02 0.0000000000000000e+00  -6.0224112908763416e-01 3.9995039449819338e-02 0.0000000000000000e+00  -6.1423976996698404e-01 4.3423143311602158e-02 0.0000000000000000e+00  -6.2737523005927598e-01 4.7086657280766595e-02 0.0000000000000000e+00  -6.4171646133513949e-01 5.1010423103756267e-02 0.0000000000000000e+00  -6.5733654070327141e-01 5.5222127164853689e-02 0.0000000000000000e+00  -6.7431309666801054e-01 5.9752788977109297e-02 0.0000000000000000e+00  -6.9272879753534644e-01 6.4637353357803823e-02 0.0000000000000000e+00  -7.12671