<?xml version="1.0"?>
<VTKFile type="UnstructuredGrid"  version="0.1"  >
<UnstructuredGrid>
<Piece  NumberOfPoints="2601" NumberOfCells="5000">
<Points>
<DataArray  type="Float64"  NumberOfComponents="3"  format="ascii">0 0 0  0.02 0 0  0.04 0 0  0.06 0 0  0.08 0 0  0.1 0 0  0.12 0 0  0.14 0 0  0.16 0 0  0.18 0 0  0.2 0 0  0.22 0 0  0.24 0 0  0.26 0 0  0.28 0 0  0.3 0 0  0.32 0 0  0.34 0 0  0.36 0 0  0.38 0 0  0.4 0 0  0.42 0 0  0.44 0 0  0.46 0 0  0.48 0 0  0.5 0 0  0.52 0 0  0.54 0 0  0.5600000000000001 0 0  0.58 0 0  0.6 0 0  0.62 0 0  0.64 0 0  0.66 0 0  0.68 0 0  0.7 0 0  0.72 0 0  0.74 0 0  0.76 0 0  0.78 0 0  0.8 0 0  0.82 0 0  0.84 0 0  0.86 0 0  0.88 0 0  0.9 0 0  0.92 0 0  0.9399999999999999 0 0  0.96 0 0  0.98 0 0  1 0 0  0 0.02 0  0.02 0.02 0  0.04 0.02 0  0.06 0.02 0  0.08 0.02 0  0.1 0.02 0  0.12 0.02 0  0.14 0.02 0  0.16 0.02 0  0.18 0.02 0  0.2 0.02 0  0.22 0.02 0  0.24 0.02 0  0.26 0.02 0  0.28 0.02 0  0.3 0.02 0  0.32 0.02 0  0.34 0.02 0  0.36 0.02 0  0.38 0.02 0  0.4 0.02 0  0.42 0.02 0  0.44 0.02 0  0.46 0.02 0  0.48 0.02 0  0.5 0.02 0  0.52 0.02 0  0.54 0.02 0  0.5600000000000001 0.02 0  0.58 0.02 0  0.6 0.02 0  0.62 0.02 0  0.64 0.02 0  0.66 0.02 0  0.68 0.02 0  0.7 0.02 0  0.72 0.02 0  0.74 0.02 0  0.76 0.02 0  0.78 0.02 0  0.8 0.02 0  0.82 0.02 0  0.84 0.02 0  0.86 0.02 0  0.88 0.02 0  0.9 0.02 0  0.92 0.02 0  0.9399999999999999 0.02 0  0.96 0.02 0  0.98 0.02 0  1 0.02 0  0 0.04 0  0.02 0.04 0  0.04 0.04 0  0.06 0.04 0  0.08 0.04 0  0.1 0.04 0  0.12 0.04 0  0.14 0.04 0  0.16 0.04 0  0.18 0.04 0  0.2 0.04 0  0.22 0.04 0  0.24 0.04 0  0.26 0.04 0  0.28 0.04 0  0.3 0.04 0  0.32 0.04 0  0.34 0.04 0  0.36 0.04 0  0.38 0.04 0  0.4 0.04 0  0.42 0.04 0  0.44 0.04 0  0.46 0.04 0  0.48 0.04 0  0.5 0.04 0  0.52 0.04 0  0.54 0.04 0  0.5600000000000001 0.04 0  0.58 0.04 0  0.6 0.04 0  0.62 0.04 0  0.64 0.04 0  0.66 0.04 0  0.68 0.04 0  0.7 0.04 0  0.72 0.04 0  0.74 0.04 0  0.76 0.04 0  0.78 0.04 0  0.8 0.04 0  0.82 0.04 0  0.84 0.04 0  0.86 0.04 0  0.88 0.04 0  0.9 0.04 0  0.92 0.04 0  0.9399999999999999 0.04 0  0.96 0.04 0  0.98 0.04 0  1 0.04 0  0 0.06 0  0.02 0.06 0  0.04 0.06 0  0.06 0.06 0  0.08 0.06 0  0.1 0.06 0  0.12 0.06 0  0.14 0.06 0  0.16 0.06 0  0.18 0.06 0  0.2 0.06 0  0.22 0.06 0  0.24 0.06 0  0.26 0.06 0  0.28 0.06 0  0.3 0.06 0  0.32 0.06 0  0.34 0.06 0  0.36 0.06 0  0.38 0.06 0  0.4 0.06 0  0.42 0.06 0  0.44 0.06 0  0.46 0.06 0  0.48 0.06 0  0.5 0.06 0  0.52 0.06 0  0.54 0.06 0  0.5600000000000001 0.06 0  0.58 0.06 0  0.6 0.06 0  0.62 0.06 0  0.64 0.06 0  0.66 0.06 0  0.68 0.06 0  0.7 0.06 0  0.72 0.06 0  0.74 0.06 0  0.76 0.06 0  0.78 0.06 0  0.8 0.06 0  0.82 0.06 0  0.84 0.06 0  0.86 0.06 0  0.88 0.06 0  0.9 0.06 0  0.92 0.06 0  0.9399999999999999 0.06 0  0.96 0.06 0  0.98 0.06 0  1 0.06 0  0 0.08 0  0.02 0.08 0  0.04 0.08 0  0.06 0.08 0  0.08 0.08 0  0.1 0.08 0  0.12 0.08 0  0.14 0.08 0  0.16 0.08 0  0.18 0.08 0  0.2 0.08 0  0.22 0.08 0  0.24 0.08 0  0.26 0.08 0  0.28 0.08 0  0.3 0.08 0  0.32 0.08 0  0.34 0.08 0  0.36 0.08 0  0.38 0.08 0  0.4 0.08 0  0.42 0.08 0  0.44 0.08 0  0.46 0.08 0  0.48 0.08 0  0.5 0.08 0  0.52 0.08 0  0.54 0.08 0  0.5600000000000001 0.08 0  0.58 0.08 0  0.6 0.08 0  0.62 0.08 0  0.64 0.08 0  0.66 0.08 0  0.68 0.08 0  0.7 0.08 0  0.72 0.08 0  0.74 0.08 0  0.76 0.08 0  0.78 0.08 0  0.8 0.08 0  0.82 0.08 0  0.84 0.08 0  0.86 0.08 0  0.88 0.08 0  0.9 0.08 0  0.92 0.08 0  0.9399999999999999 0.08 0  0.96 0.08 0  0.98 0.08 0  1 0.08 0  0 0.1 0  0.02 0.1 0  0.04 0.1 0  0.06 0.1 0  0.08 0.1 0  0.1 0.1 0  0.12 0.1 0  0.14 0.1 0  0.16 0.1 0  0.18 0.1 0  0.2 0.1 0  0.22 0.1 0  0.24 0.1 0  0.26 0.1 0  0.28 0.1 0  0.3 0.1 0  0.32 0.1 0  0.34 0.1 0  0.36 0.1 0  0.38 0.1 0  0.4 0.1 0  0.42 0.1 0  0.44 0.1 0  0.46 0.1 0  0.48 0.1 0  0.5 0.1 0  0.52 0.1 0  0.54 0.1 0  0.5600000000000001 0.1 0  0.58 0.1 0  0.6 0.1 0  0.62 0.1 0  0.64 0.1 0  0.66 0.1 0  0.68 0.1 0  0.7 0.1 0  0.72 0.1 0  0.74 0.1 0  0.76 0.1 0  0.78 0.1 0  0.8 0.1 0  0.82 0.1 0  0.84 0.1 0  0.86 0.1 0  0.88 0.1 0  0.9 0.1 0  0.92 0.1 0  0.9399999999999999 0.1 0  0.96 0.1 0  0.98 0.1 0  1 0.1 0  0 0.12 0  0.02 0.12 0  0.04 0.12 0  0.06 0.12 0  0.08 0.12 0  0.1 0.12 0  0.12 0.12 0  0.14 0.12 0  0.16 0.12 0  0.18 0.12 0  0.2 0.12 0  0.22 0.12 0  0.24 0.12 0  0.26 0.12 0  0.28 0.12 0  0.3 0.12 0  0.32 0.12 0  0.34 0.12 0  0.36 0.12 0  0.38 0.12 0  0.4 0.12 0  0.42 0.12 0  0.44 0.12 0  0.46 0.12 0  0.48 0.12 0  0.5 0.12 0  0.52 0.12 0  0.54 0.12 0  0.5600000000000001 0.12 0  0.58 0.12 0  0.6 0.12 0  0.62 0.12 0  0.64 0.12 0  0.66 0.12 0  0.68 0.12 0  0.7 0.12 0  0.72 0.12 0  0.74 0.12 0  0.76 0.12 0  0.78 0.12 0  0.8 0.12 0  0.82 0.12 0  0.84 0.12 0  0.86 0.12 0  0.88 0.12 0  0.9 0.12 0  0.92 0.12 0  0.9399999999999999 0.12 0  0.96 0.12 0  0.98 0.12 0  1 0.12 0  0 0.14 0  0.02 0.14 0  0.04 0.14 0  0.06 0.14 0  0.08 0.14 0  0.1 0.14 0  0.12 0.14 0  0.14 0.14 0  0.16 0.14 0  0.18 0.14 0  0.2 0.14 0  0.22 0.14 0  0.24 0.14 0  0.26 0.14 0  0.28 0.14 0  0.3 0.14 0  0.32 0.14 0  0.34 0.14 0  0.36 0.14 0  0.38 0.14 0  0.4 0.14 0  0.42 0.14 0  0.44 0.14 0  0.46 0.14 0  0.48 0.14 0  0.5 0.14 0  0.52 0.14 0  0.54 0.14 0  0.5600000000000001 0.14 0  0.58 0.14 0  0.6 0.14 0  0.62 0.14 0  0.64 0.14 0  0.66 0.14 0  0.68 0.14 0  0.7 0.14 0  0.72 0.14 0  0.74 0.14 0  0.76 0.14 0  0.78 0.14 0  0.8 0.14 0  0.82 0.14 0  0.84 0.14 0  0.86 0.14 0  0.88 0.14 0  0.9 0.14 0  0.92 0.14 0  0.9399999999999999 0.14 0  0.96 0.14 0  0.98 0.14 0  1 0.14 0  0 0.16 0  0.02 0.16 0  0.04 0.16 0  0.06 0.16 0  0.08 0.16 0  0.1 0.16 0  0.12 0.16 0  0.14 0.16 0  0.16 0.16 0  0.18 0.16 0  0.2 0.16 0  0.22 0.16 0  0.24 0.16 0  0.26 0.16 0  0.28 0.16 0  0.3 0.16 0  0.32 0.16 0  0.34 0.16 0  0.36 0.16 0  0.38 0.16 0  0.4 0.16 0  0.42 0.16 0  0.44 0.16 0  0.46 0.16 0  0.48 0.16 0  0.5 0.16 0  0.52 0.16 0  0.54 0.16 0  0.5600000000000001 0.16 0  0.58 0.16 0  0.6 0.16 0  0.62 0.16 0  0.64 0.16 0  0.66 0.16 0  0.68 0.16 0  0.7 0.16 0  0.72 0.16 0  0.74 0.16 0  0.76 0.16 0  0.78 0.16 0  0.8 0.16 0  0.82 0.16 0  0.84 0.16 0  0.86 0.16 0  0.88 0.16 0  0.9 0.16 0  0.92 0.16 0  0.9399999999999999 0.16 0  0.96 0.16 0  0.98 0.16 0  1 0.16 0  0 0.18 0  0.02 0.18 0  0.04 0.18 0  0.06 0.18 0  0.08 0.18 0  0.1 0.18 0  0.12 0.18 0  0.14 0.18 0  0.16 0.18 0  0.18 0.18 0  0.2 0.18 0  0.22 0.18 0  0.24 0.18 0  0.26 0.18 0  0.28 0.18 0  0.3 0.18 0  0.32 0.18 0  0.34 0.18 0  0.36 0.18 0  0.38 0.18 0  0.4 0.18 0  0.42 0.18 0  0.44 0.18 0  0.46 0.18 0  0.48 0.18 0  0.5 0.18 0  0.52 0.18 0  0.54 0.18 0  0.5600000000000001 0.18 0  0.58 0.18 0  0.6 0.18 0  0.62 0.18 0  0.64 0.18 0  0.66 0.18 0  0.68 0.18 0  0.7 0.18 0  0.72 0.18 0  0.74 0.18 0  0.76 0.18 0  0.78 0.18 0  0.8 0.18 0  0.82 0.18 0  0.84 0.18 0  0.86 0.18 0  0.88 0.18 0  0.9 0.18 0  0.92 0.18 0  0.9399999999999999 0.18 0  0.96 0.18 0  0.98 0.18 0  1 0.18 0  0 0.2 0  0.02 0.2 0  0.04 0.2 0  0.06 0.2 0  0.08 0.2 0  0.1 0.2 0  0.12 0.2 0  0.14 0.2 0  0.16 0.2 0  0.18 0.2 0  0.2 0.2 0  0.22 0.2 0  0.24 0.2 0  0.26 0.2 0  0.28 0.2 0  0.3 0.2 0  0.32 0.2 0  0.34 0.2 0  0.36 0.2 0  0.38 0.2 0  0.4 0.2 0  0.42 0.2 0  0.44 0.2 0  0.46 0.2 0  0.48 0.2 0  0.5 0.2 0  0.52 0.2 0  0.54 0.2 0  0.5600000000000001 0.2 0  0.58 0.2 0  0.6 0.2 0  0.62 0.2 0  0.64 0.2 0  0.66 0.2 0  0.68 0.2 0  0.7 0.2 0  0.72 0.2 0  0.74 0.2 0  0.76 0.2 0  0.78 0.2 0  0.8 0.2 0  0.82 0.2 0  0.84 0.2 0  0.86 0.2 0  0.88 0.2 0  0.9 0.2 0  0.92 0.2 0  0.9399999999999999 0.2 0  0.96 0.2 0  0.98 0.2 0  1 0.2 0  0 0.22 0  0.02 0.22 0  0.04 0.22 0  0.06 0.22 0  0.08 0.22 0  0.1 0.22 0  0.12 0.22 0  0.14 0.22 0  0.16 0.22 0  0.18 0.22 0  0.2 0.22 0  0.22 0.22 0  0.24 0.22 0  0.26 0.22 0  0.28 0.22 0  0.3 0.22 0  0.32 0.22 0  0.34 0.22 0  0.36 0.22 0  0.38 0.22 0  0.4 0.22 0  0.42 0.22 0  0.44 0.22 0  0.46 0.22 0  0.48 0.22 0  0.5 0.22 0  0.52 0.22 0  0.54 0.22 0  0.5600000000000001 0.22 0  0.58 0.22 0  0.6 0.22 0  0.62 0.22 0  0.64 0.22 0  0.66 0.22 0  0.68 0.22 0  0.7 0.22 0  0.72 0.22 0  0.74 0.22 0  0.76 0.22 0  0.78 0.22 0  0.8 0.22 0  0.82 0.22 0  0.84 0.22 0  0.86 0.22 0  0.88 0.22 0  0.9 0.22 0  0.92 0.22 0  0.9399999999999999 0.22 0  0.96 0.22 0  0.98 0.22 0  1 0.22 0  0 0.24 0  0.02 0.24 0  0.04 0.24 0  0.06 0.24 0  0.08 0.24 0  0.1 0.24 0  0.12 0.24 0  0.14 0.24 0  0.16 0.24 0  0.18 0.24 0  0.2 0.24 0  0.22 0.24 0  0.24 0.24 0  0.26 0.24 0  0.28 0.24 0  0.3 0.24 0  0.32 0.24 0  0.34 0.24 0  0.36 0.24 0  0.38 0.24 0  0.4 0.24 0  0.42 0.24 0  0.44 0.24 0  0.46 0.24 0  0.48 0.24 0  0.5 0.24 0  0.52 0.24 0  0.54 0.24 0  0.5600000000000001 0.24 0  0.58 0.24 0  0.6 0.24 0  0.62 0.24 0  0.64 0.24 0  0.66 0.24 0  0.68 0.24 0  0.7 0.24 0  0.72 0.24 0  0.74 0.24 0  0.76 0.24 0  0.78 0.24 0  0.8 0.24 0  0.82 0.24 0  0.84 0.24 0  0.86 0.24 0  0.88 0.24 0  0.9 0.24 0  0.92 0.24 0  0.9399999999999999 0.24 0  0.96 0.24 0  0.98 0.24 0  1 0.24 0  0 0.26 0  0.02 0.26 0  0.04 0.26 0  0.06 0.26 0  0.08 0.26 0  0.1 0.26 0  0.12 0.26 0  0.14 0.26 0  0.16 0.26 0  0.18 0.26 0  0.2 0.26 0  0.22 0.26 0  0.24 0.26 0  0.26 0.26 0  0.28 0.26 0  0.3 0.26 0  0.32 0.26 0  0.34 0.26 0  0.36 0.26 0  0.38 0.26 0  0.4 0.26 0  0.42 0.26 0  0.44 0.26 0  0.46 0.26 0  0.48 0.26 0  0.5 0.26 0  0.52 0.26 0  0.54 0.26 0  0.5600000000000001 0.26 0  0.58 0.26 0  0.6 0.26 0  0.62 0.26 0  0.64 0.26 0  0.66 0.26 0  0.68 0.26 0  0.7 0.26 0  0.72 0.26 0  0.74 0.26 0  0.76 0.26 0  0.78 0.26 0  0.8 0.26 0  0.82 0.26 0  0.84 0.26 0  0.86 0.26 0  0.88 0.26 0  0.9 0.26 0  0.92 0.26 0  0.9399999999999999 0.26 0  0.96 0.26 0  0.98 0.26 0  1 0.26 0  0 0.28 0  0.02 0.28 0  0.04 0.28 0  0.06 0.28 0  0.08 0.28 0  0.1 0.28 0  0.12 0.28 0  0.14 0.28 0  0.16 0.28 0  0.18 0.28 0  0.2 0.28 0  0.22 0.28 0  0.24 0.28 0  0.26 0.28 0  0.28 0.28 0  0.3 0.28 0  0.32 0.28 0  0.34 0.28 0  0.36 0.28 0  0.38 0.28 0  0.4 0.28 0  0.42 0.28 0  0.44 0.28 0  0.46 0.28 0  0.48 0.28 0  0.5 0.28 0  0.52 0.28 0  0.54 0.28 0  0.5600000000000001 0.28 0  0.58 0.28 0  0.6 0.28 0  0.62 0.28 0  0.64 0.28 0  0.66 0.28 0  0.68 0.28 0  0.7 0.28 0  0.72 0.28 0  0.74 0.28 0  0.76 0.28 0  0.78 0.28 0  0.8 0.28 0  0.82 0.28 0  0.84 0.28 0  0.86 0.28
[...]
<PointData  Vectors="f_120"> 
<DataArray  type="Float64"  Name="f_120"  NumberOfComponents="3" format="ascii">-8.0105183038475802e-01 -1.0238597879823984e-05 0.0000000000000000e+00  -8.0082840298114755e-01 1.6026772241828124e-04 0.0000000000000000e+00  -8.0017923576101679e-01 2.6522705004999994e-04 0.0000000000000000e+00  -7.9915360227105470e-01 3.7292910098185833e-04 0.0000000000000000e+00  -7.9776265685937264e-01 4.8006067522299463e-04 0.0000000000000000e+00  -7.9602825261293508e-01 5.8837685185674773e-04 0.0000000000000000e+00  -7.9398044627094433e-01 6.9876737105693039e-04 0.0000000000000000e+00  -7.9165472114470592e-01 8.1187426220594378e-04 0.0000000000000000e+00  -7.8909184491959550e-01 9.2833748274094379e-04 0.0000000000000000e+00  -7.8633758721887570e-01 1.0487941547925163e-03 0.0000000000000000e+00  -7.8344253729028612e-01 1.1739008650438532e-03 0.0000000000000000e+00  -7.8046196429511516e-01 1.3043434816878336e-03 0.0000000000000000e+00  -7.7745570477165193e-01 1.4408450307003265e-03 0.0000000000000000e+00  -7.7448807835461952e-01 1.5841733149995585e-03 0.0000000000000000e+00  -7.7162783368163723e-01 1.7351488763786100e-03 0.0000000000000000e+00  -7.6894812836161996e-01 1.8946538235568655e-03 0.0000000000000000e+00  -7.6652654787548313e-01 2.0636418971295861e-03 0.0000000000000000e+00  -7.6444516920737238e-01 2.2431501463405280e-03 0.0000000000000000e+00  -7.6279067606650452e-01 2.4343126372962532e-03 0.0000000000000000e+00  -7.6165453389152782e-01 2.6383766969907503e-03 0.0000000000000000e+00  -7.6113323454795156e-01 2.8567223183868914e-03 0.0000000000000000e+00  -7.6132862287181180e-01 3.0908855179164470e-03 0.0000000000000000e+00  -7.6234832014315301e-01 3.3425866590089314e-03 0.0000000000000000e+00  -7.6430626341729280e-01 3.6137650555015557e-03 0.0000000000000000e+00  -7.6732338469890260e-01 3.9066215723283348e-03 0.0000000000000000e+00  -7.7152846064135494e-01 4.2236714941453193e-03 0.0000000000000000e+00  -7.7705917238114530e-01 4.5678106927006506e-03 0.0000000000000000e+00  -7.8406342712897281e-01 4.9423991858680346e-03 0.0000000000000000e+00  -7.9270100946222477e-01 5.3513676811256039e-03 0.0000000000000000e+00  -8.0314565270788141e-01 5.7993548473441563e-03 0.0000000000000000e+00  -8.1558765206591910e-01 6.2918861897565768e-03 0.0000000000000000e+00  -8.3023718529023038e-01 6.8356100406823410e-03 0.0000000000000000e+00  -8.4732857016578178e-01 7.4386131745493404e-03 0.0000000000000000e+00  -8.6712578060243739e-01 8.1108493322273635e-03 0.0000000000000000e+00  -8.8992968135389505e-01 8.8647309199841543e-03 0.0000000000000000e+00  -9.1608765058095920e-01 9.7159615983334786e-03 0.0000000000000000e+00  -9.4600659016071742e-01 1.0684733193546955e-02 0.0000000000000000e+00  -9.8017083546260231e-01 1.1797488734182156e-02 0.0000000000000000e+00  -1.0191673955456719e+00 1.3089595185384434e-02 0.0000000000000000e+00  -1.0637222308443517e+00 1.4609529410092073e-02 0.0000000000000000e+00  -1.1147547543796332e+00 1.6425703320642113e-02 0.0000000000000000e+00  -1.1734595009002968e+00 1.8638276214201048e-02 0.0000000000000000e+00  -1.2414464192510060e+00 2.1400362014739476e-02 0.0000000000000000e+00  -1.3209407515111007e+00 2.4961919687715727e-02 0.0000000000000000e+00  -1.4153307967322291e+00 2.9783106907831727e-02 0.0000000000000000e+00  -1.5293038736316023e+00 3.6707012757301080e-02 0.0000000000000000e+00  -1.6742775010490698e+00 4.8579714025743841e-02 0.0000000000000000e+00  -1.8574814596183087e+00 7.2218579758707463e-02 0.0000000000000000e+00  -2.1570171763555348e+00 1.3585695251075383e-01 0.0000000000000000e+00  -2.6561011594382071e+00 4.5900589401686354e-01 0.0000000000000000e+00  -3.4744494844405098e+00 1.3368039775223659e+00 0.0000000000000000e+00  -8.0072822628085216e-01 4.7721313485828199e-06 0.0000000000000000e+00  -8.0064418688165018e-01 3.8133221354594364e-04 0.0000000000000000e+00  -7.9998724327252613e-01 7.2629661421607381e-04 0.0000000000000000e+00  -7.9896824231746033e-01 1.0725510109043711e-03 0.0000000000000000e+00  -7.9757572071113003e-01 1.4179533684746260e-03 0.0000000000000000e+00  -7.9583839843364379e-01 1.7686741194431314e-03 0.0000000000000000e+00  -7.9378643677736382e-01 2.1266422904297078e-03 0.0000000000000000e+00  -7.9145542913313716e-01 2.4939516446730410e-03 0.0000000000000000e+00  -7.8888618538579347e-01 2.8725761550696194e-03 0.0000000000000000e+00  -7.8612445179136903e-01 3.2645050324674281e-03 0.0000000000000000e+00  -7.8322077629292930e-01 3.6717943816613214e-03 0.0000000000000000e+00  -7.8023037111583593e-01 4.0965951614896591e-03 0.0000000000000000e+00  -7.7721300255711179e-01 4.5411787793112673e-03 0.0000000000000000e+00  -7.7423290673729572e-01 5.0079613017243712e-03 0.0000000000000000e+00  -7.7135873442356784e-01 5.4995290672711526e-03 0.0000000000000000e+00  -7.6866352922987291e-01 6.0186670735388817e-03 0.0000000000000000e+00  -7.6622474411084140e-01 6.5683913051790320e-03 0.0000000000000000e+00  -7.6412430191524316e-01 7.1519861903622294e-03 0.0000000000000000e+00  -7.6244870675101539e-01 7.7730485263949644e-03 0.0000000000000000e+00  -7.6128921418079432e-01 8.4355394874479836e-03 0.0000000000000000e+00  -7.6074206991911919e-01 9.1438467164548769e-03 0.0000000000000000e+00  -7.6090882886023936e-01 9.9028590323945002e-03 0.0000000000000000e+00  -7.6189676908530490e-01 1.0718056993925421e-02 0.0000000000000000e+00  -7.6381941919155194e-01 1.1595623514498894e-02 0.0000000000000000e+00  -7.6679722213549484e-01 1.2542580011731691e-02 0.0000000000000000e+00  -7.7095836518607552e-01 1.3566955329855515e-02 0.0000000000000000e+00  -7.7643981409494089e-01 1.4677997091799911e-02 0.0000000000000000e+00  -7.8338860099962992e-01 1.5886438506475645e-02 0.0000000000000000e+00  -7.9196343101432343e-01 1.7204838411682910e-02 0.0000000000000000e+00  -8.0233669359002457e-01 1.8648019139448031e-02 0.0000000000000000e+00  -8.1469699398829687e-01 2.0233636680783401e-02 0.0000000000000000e+00  -8.2925236129730506e-01 2.1982932242605814e-02 0.0000000000000000e+00  -8.4623434796713159e-01 2.3921736281193699e-02 0.0000000000000000e+00  -8.6590332061740072e-01 2.6081829858732357e-02 0.0000000000000000e+00  -8.8855536695641302e-01 2.8502821157693904e-02 0.0000000000000000e+00  -9.1453143138757709e-01 3.1234780221216941e-02 0.0000000000000000e+00  -9.4422958168868243e-01 3.4342015892181485e-02 0.0000000000000000e+00  -9.7812175990781325e-01 3.7908619255672293e-02 0.0000000000000000e+00  -1.0167771196749782e+00 4.2046822361084528e-02 0.0000000000000000e+00  -1.0608952132943545e+00 4.6909999590535746e-02 0.0000000000000000e+00  -1.1113546357865605e+00 5.2713653655596167e-02 0.0000000000000000e+00  -1.1692854393815584e+00 5.9770721094058343e-02 0.0000000000000000e+00  -1.2361844280577143e+00 6.8554170244857937e-02 0.0000000000000000e+00  -1.3140911514719416e+00 7.9815905254974062e-02 0.0000000000000000e+00  -1.4059120061858155e+00 9.4817702271469462e-02 0.0000000000000000e+00  -1.5158859244096445e+00 1.1587881226007284e-01 0.0000000000000000e+00  -1.6507830544873898e+00 1.4757858613754057e-01 0.0000000000000000e+00  -1.8186357213460096e+00 1.9896903284467918e-01 0.0000000000000000e+00  -2.0484870053524467e+00 2.9845569683336820e-01 0.0000000000000000e+00  -2.2545781157176528e+00 4.7011453170957856e-01 0.0000000000000000e+00  -2.7363587451045910e+00 8.6711948960502438e-01 0.0000000000000000e+00  -8.0006228803483159e-01 -9.8928869817901732e-07 0.0000000000000000e+00  -8.0010735187472415e-01 7.4086953321890784e-04 0.0000000000000000e+00  -7.9942562310010767e-01 1.4856618192033071e-03 0.0000000000000000e+00  -7.9841105293436798e-01 2.2340940492610634e-03 0.0000000000000000e+00  -7.9701024809978038e-01 2.9888879832223507e-03 0.0000000000000000e+00  -7.9526276329909484e-01 3.7561971011203189e-03 0.0000000000000000e+00  -7.9319705687161735e-01 4.5397703179873078e-03 0.0000000000000000e+00  -7.9084917885054307e-01 5.3439977873898604e-03 0.0000000000000000e+00  -7.8825989947530994e-01 6.1730505653317998e-03 0.0000000000000000e+00  -7.8547488115433617e-01 7.0312167557719041e-03 0.0000000000000000e+00  -7.8254453855335260e-01 7.9229351720053690e-03 0.0000000000000000e+00  -7.7952390814712524e-01 8.8528555954769245e-03 0.0000000000000000e+00  -7.7647254244967534e-01 9.8258898390048716e-03 0.0000000000000000e+00  -7.7345442427827793e-01 1.0847262613265565e-02 0.0000000000000000e+00  -7.7053790807725009e-01 1.1922566139939028e-02 0.0000000000000000e+00  -7.6779569269552472e-01 1.3057820860932351e-02 0.0000000000000000e+00  -7.6530483065631538e-01 1.4259544615987106e-02 0.0000000000000000e+00  -7.6314677952227394e-01 1.5534832720645830e-02 0.0000000000000000e+00  -7.6140750175755123e-01 1.6891451743699954e-02 0.0000000000000000e+00  -7.6017762058466987e-01 1.8337950363379697e-02 0.0000000000000000e+00  -7.5955264079088802e-01 1.9883791495773934e-02 0.0000000000000000e+00  -7.5963324534973509e-01 2.1539510987114700e-02 0.0000000000000000e+00  -7.6052568121837216e-01 2.3316909629503231e-02 0.0000000000000000e+00  -7.6234225092278163e-01 2.5229287222294453e-02 0.0000000000000000e+00  -7.6520193078146292e-01 2.7291730041998741e-02 0.0000000000000000e+00  -7.6923114216531485e-01 2.9521466666930753e-02 0.0000000000000000e+00  -7.7456470948457379e-01 3.1938312012377360e-02 0.0000000000000000e+00  -7.8134704824798462e-01 3.4565226236993804e-02 0.0000000000000000e+00  -7.8973363941382935e-01 3.7429024724725070e-02 0.0000000000000000e+00  -7.9989286357407807e-01 4.0561288911541100e-02 0.0000000000000000e+00  -8.1200829203556735e-01 4.3999547281757097e-02 0.0000000000000000e+00  -8.2628156413099318e-01 4.7788824489267918e-02 0.0000000000000000e+00  -8.4293602484143015e-01 5.1983699182466092e-02 0.0000000000000000e+00  -8.6222135951040002e-01 5.6651075732969076e-02 0.0000000000000000e+00  -8.8441955141972739e-01 6.1873974997767811e-02 0.0000000000000000e+00  -9.0985261494784453e-01 6.7756807153834864e-02 0.0000000000000000e+00  -9.3889274251878518e-01 7.4432845153462546e-02 0.0000000000000000e+00  -9.7197576552545717e-01 8.2075041563839463e-02 0.0000000000000000e+00  -1.0096192407049780e+00 9.0912055986911530e-02 0.0000000000000000e+00  -1.0524469457907393e+00 1.0125263607675700e-01 0.0000000000000000e+00  -1.1012226769879856e+00 1.1352381367824897e-01 0.0000000000000000e+00  -1.1568958029353937e+00 1.2833272280562039e-01 0.0000000000000000e+00  -1.2206673465930737e+00 1.4657045991300396e-01 0.0000000000000000e+00  -1.2940604198318761e+00 1.6959223331646223e-01 0.0000000000000000e+00  -1.3790678604917936e+00 1.9954633957928225e-01 0.0000000000000000e+00  -1.4780065810004515e+00 2.3998279682677737e-01 0.0000000000000000e+00  -1.5941476615975509e+00 2.9695225032656136e-01 0.0000000000000000e+00  -1.7278134197479418e+00 3.8147918292593308e-01 0.0000000000000000e+00  -1.8832432966826851e+00 5.1127463469551804e-01 0.0000000000000000e+00  -2.0110332078928228e+00 7.1413504325595289e-01 0.0000000000000000e+00  -2.2120804356553312e+00 1.0508205697698845e+00 0.0000000000000000e+00  -7.9904444427044974e-01 2.5573724089539560e-07 0.0000000000000000e+00  -7.9921758960817424e-01 1.0929119492185887e-03 0.0000000000000000e+00  -7.9850014402590830e-01 2.1870116436613564e-03 0.0000000000000000e+00  -7.9748668906667786e-01 3.2875091361194960e-03 0.0000000000000000e+00  -7.9607103398136636e-01 4.4011198127857755e-03 0.0000000000000000e+00  -7.9430600839649645e-01 5.5337958907080041e-03 0.0000000000000000e+00  -7.9221706917954438e-01 6.6912914310750388e-03 0.0000000000000000e+00  -7.8984100028066639e-01 7.8796694190385441e-03 0.0000000000000000e+00  -7.8721833591070101e-01 9.1049431073980114e-03 0.0000000000000000e+00  -7.8439459087896890e-01 1.0373364827849231e-02 0.0000000000000000e+00  -7.8141994134802628e-01 1.1691429266416330e-02 0.0000000000000000e+00  -7.7834912826526326e-01 1.3065956089860387e-02 0.0000000000000000e+00  -7.7524134918828969e-01 1.4504154423441258e-02 0.0000000000000000e+00  -7.7216016881025740e-01 1.6013694070929150e-02 0.0000000000000000e+00  -7.6917345389446401e-01 1.7602783121876377e-02 0.0000000000000000e+00  -7.6635333690276231e-01 1.9280255089924397e-02 0.0000000000000000e+00  -7.6377621343597280e-01 2.1055668529306400e-02 0.0000000000000000e+00  -7.6152277869758234e-01 2.2939422396066760e-02 0.0000000000000000e+00  -7.5967810879226472e-01 2.4942891031762841e-02 0.0000000000000000e+00  -7.5833179351613822e-01 2.7078583490762545e-02 0.0000000000000000e+00  -7.5757812845585193e-01 2.9360333081163089e-02 0.0000000000000000e+00  -7.5751637574813335e-01 3.1803524516405675e-02 0.0000000000000000e+00  -7.5825110484609359e-01 3.4425368096563790e-02 0.0000000000000000e+00  -7.5989262721255169e-01 3.7245233024500224e-02 0.0000000000000000e+00  -7.6255754216898075e-01 4.0285055552532457e-02 0.0000000000000000e+00  -7.6636941537722947e-01 4.3569842492412900e-02 0.0000000000000000e+00  -7.7145961689543896e-01 4.7128297200925477e-02 0.0000000000000000e+00  -7.7796835278783893e-01 5.0993604192041853e-02 0.0000000000000000e+00  -7.8604593335940520e-01 5.5204421083654059e-02 0.0000000000000000e+00  -7.9585433285190954e-01 5.9806144237385700e-02 0.0000000000000000e+00  -8.0756911068706938e-01 6.4852539577009150e-02 0.0000000000000000e+00  -8.2138178408798479e-01 7.0407866324470145e-02 0.0000000000000000e+00  -8.3750276738260354e-01 7.6549674455472283e-02 0.0000000000000000e+00  -8.5616502577889020e-01 8.3372535532141342e-02 0.0000000000000000e+00  -8.7762863208411335e-01 9.0993085653446451e-02 0.0000000000000000e+00  -9.0218646305659045e-01 9.9556942155002340e-02 0.0000000000000000e+00  -9.3017132585710371e-01 1.0924834153738844e-01 0.0000000000000000e+00  -9.6196484379749425e-01 1.2030380082193889e-01 0.0000000000000000e+00  -9.9800844568911018e-01 1.3303184072152702e-01 0.0000000000000000e+00  -1.0388165916375383e+00 1.4784201894139024e-01 0.0000000000000000e+00  -1.0849921277004790e+00 1.6528853536105076e-01 0.0000000000000000e+00  -1.1372411851553716e+00 1.8613703686270616e-01 0.0000000000000000e+00  -1.1963854042903928e+00 2.1146874659322037e-01 0.0000000000000000e+00  -1.2633442721908026e+00 2.4284481898779170e-01 0.0000000000000000e+00  -1.3391015783481373e+00 2.8256598870257732e-01 0.0000000000000000e+00  -1.4243583875657240e+00 3.3406379732055114e-01 0.0000000000000000e+00  -1.5195538593309175e+00 4.0248936443973149e-01 0.0000000000000000e+00  -1.6210503661097631e+00 4.9514787324114462e-01 0.0000000000000000e+00  -1.7287557306321826e+00 6.2159204677469038e-01 0.0000000000000000e+00  -1.7979926560825308e+00 7.9113337391705896e-01 0.0000000000000000e+00  -1.9168937001417372e+00 9.9062670021829680e-01 0.0000000000000000e+00  -7.9767683193599914e-01 2.8777148563081972e-07 0.0000000000000000e+00  -7.9797562250322185e-01 1.4420524512727157e-03 0.0000000000000000e+00  -7.9721720895087644e-01 2.8898852208333451e-03 0.0000000000000000e+00  -7.9620015328082372e-01 4.3498843720502535e-03 0.0000000000000000e+00  -7.9476285447230099e-01 5.8288067246841310e-03 0.0000000000000000e+00  -7.9297254716798049e-01 7.3337545285937691e-03 0.0000000000000000e+00  -7.9085082125538186e-01 8.8722556048430688e-03 0.0000000000000000e+00  -7.8843525629967615e-01 1.0451990539517083e-02 0.0000000000000000e+00  -7.8576595507171654e-01 1.2080851190149523e-02 0.0000000000000000e+00  -7.8288821056961488e-01 1.3767042793742166e-02 0.0000000000000000e+00  -7.7985184512543892e-01 1.5519119766302431e-02 0.0000000000000000e+00  -7.7671118511480264e-01 1.7346076159874671e-02 0.0000000000000000e+00  -7.7352493486785701e-01 1.9257422305800072e-02 0.0000000000000000e+00  -7.7035608226868135e-01 2.1263274576122329e-02 0.0000000000000000e+00  -7.6727182372087033e-01 2.3374453858762315e-02 0.0000000000000000e+00  -7.6434351502248665e-01 2.5602597129674172e-02 0.0000000000000000e+00  -7.6164665271435283e-01 2.7960285209438759e-02 0.0000000000000000e+00  -7.5926089050564760e-01 3.0461190657596442e-02 0.0000000000000000e+00  -7.5727009577253435e-01 3.3120250540054470e-02 0.0000000000000000e+00  -7.5576245166843292e-01 3.5953869878541503e-02 0.0000000000000000e+00  -7.5483061118613060e-01 3.8980163006061705e-02 0.0000000000000000e+00  -7.5457191057785267e-01 4.2219241903086076e-02 0.0000000000000000e+00  -7.5508865091414679e-01 4.5693563015894001e-02 0.0000000000000000e+00  -7.5648845829952305e-01 4.9428347250853821e-02 0.0000000000000000e+00  -7.5888473543142687e-01 5.3452092067861459e-02 0.0000000000000000e+00  -7.6239721986429543e-01 5.7797200236834996e-02 0.0000000000000000e+00  -7.6715266761063639e-01 6.2500757409447424e-02 0.0000000000000000e+00  -7.7328568465663083e-01 6.7605500955279091e-02 0.0000000000000000e+00  -7.8093973364981639e-01 7.3161036616582673e-02 0.0000000000000000e+00  -7.9026834841794991e-01 7.9225379048697517e-02 0.0000000000000000e+00  -8.0143659493221808e-01 8.5866919585224522e-02 0.0000000000000000e+00  -8.1462282332468072e-01 9.3166963087548335e-02 0.0000000000000000e+00  -8.3002076043978357e-01 1.0122303073743748e-01 0.0000000000000000e+00  -8.4784199360120094e-01 1.1015320500509215e-01 0.0000000000000000e+00  -8.6831888882565222e-01 1.2010190878113045e-01 0.0000000000000000e+00  -8.9170795994856666e-01 1.3124768110559168e-01 0.0000000000000000e+00  -9.1829364073715136e-01 1.4381376491228104e-01 0.0000000000000000e+00  -9.4839226329863835e-01 1.5808269954080273e-01 0.0000000000000000e+00  -9.8235576162177307e-01 1.7441667331934910e-01 0.0000000000000000e+00  -1.0205739381494365e+00 1.9328622093527881e-01 0.0000000000000000e+00  -1.0634731558952708e+00 2.1531103967135004e-01 0.0000000000000000e+00  -1.1115058377664435e+00 2.4131827366744374e-01 0.0000000000000000e+00  -1.1651242833039992e+00 2.7242538911327246e-01 0.0000000000000000e+00  -1.2247071973845394e+00 3.1015549701399620e-01 0.0000000000000000e+00  -1.2904510974266006e+00 3.5658901353099470e-01 0.0000000000000000e+00  -1.3619675847555832e+00 4.1453839019813865e-01 0.0000000000000000e+00  -1.4382311065213405e+00 4.8766794534315056e-01 0.0000000000000000e+00  -1.5147270588430033e+00 5.8033013235592168e-01 0.0000000000000000e+00  -1.5899698900669446e+00 6.9681571291087652e-01 0.0000000000000000e+00  -1.6317267515133738e+00 8.3738617495611756e-01 0.0000000000000000e+00  -1.7150907257943766e+00 9.9971885032431240e-01 0.0000000000000000e+00  -7.9596387443413996e-01 3.6814430604193074e-07 0.0000000000000000e+00  -7.9638533701962477e-01 1.7865008113031537e-03 0.0000000000000000e+00  -7.9558278387480630e-01 3.5808497733721563e-03 0.0000000000000000e+00  -7.9455728686239380e-01 5.3907313938886918e-03 0.0000000000000000e+00  -7.9309206704737012e-01 7.2247271753951518e-03 0.0000000000000000e+00  -7.9126881446228270e-01 9.0916384661683114e-03 0.0000000000000000e+00  -7.8910492445099256e-01 1.1000535954030312e-02 0.0000000000000000e+00  -7.8663876430914148e-01 1.2960753803061106e-02 0.0000000000000000e+00  -7.8390986060041379e-01 1.4981969514674568e-02 0.0000000000000000e+00  -7.8096320004638620e-01 1.7074245273340533e-02 0.0000000000000000e+00  -7.7784813911968487e-01 1.9248101617620531e-02 0.0000000000000000e+00  -7.7461847520847349e-01 2.1514604452540435e-02 0.0000000000000000e+00  -7.7133228789450081e-01 2.3885455363704428e-02 0.0000000000000000e+00  -7.6805183949594613e-01 2.6373096316327761e-02 0.0000000000000000e+00  -7.6484348621087173e-01 2.8990825916108673e-02 0.0000000000000000e+00  -7.6177761313443837e-01 3.1752931842263625e-02 0.0000000000000000e+00  -7.5892859580918115e-01 3.4674842539147668e-02 0.0000000000000000e+00  -7.5637479230723448e-01 3.7773302617286501e-02 0.0000000000000000e+00  -7.5419856980979771e-01 4.1066577262240618e-02 0.0000000000000000e+00  -7.5248636990379325e-01 4.4574692200449878e-02 0.0000000000000000e+00  -7.5132881722650935e-01 4.8319717348284663e-02 0.0000000000000000e+00  -7.5082087664116470e-01 5.2326104305794437e-02 0.0000000000000000e+00  -7.5106206482227900e-01 5.6621090490261185e-02 0.0000000000000000e+00  -7.5215672296231662e-01 6.1235186131484973e-02 0.0000000000000000e+00  -7.5421435825702565e-01 6.6202764832795857e-02 0.0000000000000000e+00  -7.57350