<?xml version="1.0"?>
<VTKFile type="UnstructuredGrid"  version="0.1"  >
<UnstructuredGrid>
<Piece  NumberOfPoints="2601" NumberOfCells="5000">
<Points>
<DataArray  type="Float64"  NumberOfComponents="3"  format="ascii">0 0 0  0.02 0 0  0.04 0 0  0.06 0 0  0.08 0 0  0.1 0 0  0.12 0 0  0.14 0 0  0.16 0 0  0.18 0 0  0.2 0 0  0.22 0 0  0.24 0 0  0.26 0 0  0.28 0 0  0.3 0 0  0.32 0 0  0.34 0 0  0.36 0 0  0.38 0 0  0.4 0 0  0.42 0 0  0.44 0 0  0.46 0 0  0.48 0 0  0.5 0 0  0.52 0 0  0.54 0 0  0.5600000000000001 0 0  0.58 0 0  0.6 0 0  0.62 0 0  0.64 0 0  0.66 0 0  0.68 0 0  0.7 0 0  0.72 0 0  0.74 0 0  0.76 0 0  0.78 0 0  0.8 0 0  0.82 0 0  0.84 0 0  0.86 0 0  0.88 0 0  0.9 0 0  0.92 0 0  0.9399999999999999 0 0  0.96 0 0  0.98 0 0  1 0 0  0 0.02 0  0.02 0.02 0  0.04 0.02 0  0.06 0.02 0  0.08 0.02 0  0.1 0.02 0  0.12 0.02 0  0.14 0.02 0  0.16 0.02 0  0.18 0.02 0  0.2 0.02 0  0.22 0.02 0  0.24 0.02 0  0.26 0.02 0  0.28 0.02 0  0.3 0.02 0  0.32 0.02 0  0.34 0.02 0  0.36 0.02 0  0.38 0.02 0  0.4 0.02 0  0.42 0.02 0  0.44 0.02 0  0.46 0.02 0  0.48 0.02 0  0.5 0.02 0  0.52 0.02 0  0.54 0.02 0  0.5600000000000001 0.02 0  0.58 0.02 0  0.6 0.02 0  0.62 0.02 0  0.64 0.02 0  0.66 0.02 0  0.68 0.02 0  0.7 0.02 0  0.72 0.02 0  0.74 0.02 0  0.76 0.02 0  0.78 0.02 0  0.8 0.02 0  0.82 0.02 0  0.84 0.02 0  0.86 0.02 0  0.88 0.02 0  0.9 0.02 0  0.92 0.02 0  0.9399999999999999 0.02 0  0.96 0.02 0  0.98 0.02 0  1 0.02 0  0 0.04 0  0.02 0.04 0  0.04 0.04 0  0.06 0.04 0  0.08 0.04 0  0.1 0.04 0  0.12 0.04 0  0.14 0.04 0  0.16 0.04 0  0.18 0.04 0  0.2 0.04 0  0.22 0.04 0  0.24 0.04 0  0.26 0.04 0  0.28 0.04 0  0.3 0.04 0  0.32 0.04 0  0.34 0.04 0  0.36 0.04 0  0.38 0.04 0  0.4 0.04 0  0.42 0.04 0  0.44 0.04 0  0.46 0.04 0  0.48 0.04 0  0.5 0.04 0  0.52 0.04 0  0.54 0.04 0  0.5600000000000001 0.04 0  0.58 0.04 0  0.6 0.04 0  0.62 0.04 0  0.64 0.04 0  0.66 0.04 0  0.68 0.04 0  0.7 0.04 0  0.72 0.04 0  0.74 0.04 0  0.76 0.04 0  0.78 0.04 0  0.8 0.04 0  0.82 0.04 0  0.84 0.04 0  0.86 0.04 0  0.88 0.04 0  0.9 0.04 0  0.92 0.04 0  0.9399999999999999 0.04 0  0.96 0.04 0  0.98 0.04 0  1 0.04 0  0 0.06 0  0.02 0.06 0  0.04 0.06 0  0.06 0.06 0  0.08 0.06 0  0.1 0.06 0  0.12 0.06 0  0.14 0.06 0  0.16 0.06 0  0.18 0.06 0  0.2 0.06 0  0.22 0.06 0  0.24 0.06 0  0.26 0.06 0  0.28 0.06 0  0.3 0.06 0  0.32 0.06 0  0.34 0.06 0  0.36 0.06 0  0.38 0.06 0  0.4 0.06 0  0.42 0.06 0  0.44 0.06 0  0.46 0.06 0  0.48 0.06 0  0.5 0.06 0  0.52 0.06 0  0.54 0.06 0  0.5600000000000001 0.06 0  0.58 0.06 0  0.6 0.06 0  0.62 0.06 0  0.64 0.06 0  0.66 0.06 0  0.68 0.06 0  0.7 0.06 0  0.72 0.06 0  0.74 0.06 0  0.76 0.06 0  0.78 0.06 0  0.8 0.06 0  0.82 0.06 0  0.84 0.06 0  0.86 0.06 0  0.88 0.06 0  0.9 0.06 0  0.92 0.06 0  0.9399999999999999 0.06 0  0.96 0.06 0  0.98 0.06 0  1 0.06 0  0 0.08 0  0.02 0.08 0  0.04 0.08 0  0.06 0.08 0  0.08 0.08 0  0.1 0.08 0  0.12 0.08 0  0.14 0.08 0  0.16 0.08 0  0.18 0.08 0  0.2 0.08 0  0.22 0.08 0  0.24 0.08 0  0.26 0.08 0  0.28 0.08 0  0.3 0.08 0  0.32 0.08 0  0.34 0.08 0  0.36 0.08 0  0.38 0.08 0  0.4 0.08 0  0.42 0.08 0  0.44 0.08 0  0.46 0.08 0  0.48 0.08 0  0.5 0.08 0  0.52 0.08 0  0.54 0.08 0  0.5600000000000001 0.08 0  0.58 0.08 0  0.6 0.08 0  0.62 0.08 0  0.64 0.08 0  0.66 0.08 0  0.68 0.08 0  0.7 0.08 0  0.72 0.08 0  0.74 0.08 0  0.76 0.08 0  0.78 0.08 0  0.8 0.08 0  0.82 0.08 0  0.84 0.08 0  0.86 0.08 0  0.88 0.08 0  0.9 0.08 0  0.92 0.08 0  0.9399999999999999 0.08 0  0.96 0.08 0  0.98 0.08 0  1 0.08 0  0 0.1 0  0.02 0.1 0  0.04 0.1 0  0.06 0.1 0  0.08 0.1 0  0.1 0.1 0  0.12 0.1 0  0.14 0.1 0  0.16 0.1 0  0.18 0.1 0  0.2 0.1 0  0.22 0.1 0  0.24 0.1 0  0.26 0.1 0  0.28 0.1 0  0.3 0.1 0  0.32 0.1 0  0.34 0.1 0  0.36 0.1 0  0.38 0.1 0  0.4 0.1 0  0.42 0.1 0  0.44 0.1 0  0.46 0.1 0  0.48 0.1 0  0.5 0.1 0  0.52 0.1 0  0.54 0.1 0  0.5600000000000001 0.1 0  0.58 0.1 0  0.6 0.1 0  0.62 0.1 0  0.64 0.1 0  0.66 0.1 0  0.68 0.1 0  0.7 0.1 0  0.72 0.1 0  0.74 0.1 0  0.76 0.1 0  0.78 0.1 0  0.8 0.1 0  0.82 0.1 0  0.84 0.1 0  0.86 0.1 0  0.88 0.1 0  0.9 0.1 0  0.92 0.1 0  0.9399999999999999 0.1 0  0.96 0.1 0  0.98 0.1 0  1 0.1 0  0 0.12 0  0.02 0.12 0  0.04 0.12 0  0.06 0.12 0  0.08 0.12 0  0.1 0.12 0  0.12 0.12 0  0.14 0.12 0  0.16 0.12 0  0.18 0.12 0  0.2 0.12 0  0.22 0.12 0  0.24 0.12 0  0.26 0.12 0  0.28 0.12 0  0.3 0.12 0  0.32 0.12 0  0.34 0.12 0  0.36 0.12 0  0.38 0.12 0  0.4 0.12 0  0.42 0.12 0  0.44 0.12 0  0.46 0.12 0  0.48 0.12 0  0.5 0.12 0  0.52 0.12 0  0.54 0.12 0  0.5600000000000001 0.12 0  0.58 0.12 0  0.6 0.12 0  0.62 0.12 0  0.64 0.12 0  0.66 0.12 0  0.68 0.12 0  0.7 0.12 0  0.72 0.12 0  0.74 0.12 0  0.76 0.12 0  0.78 0.12 0  0.8 0.12 0  0.82 0.12 0  0.84 0.12 0  0.86 0.12 0  0.88 0.12 0  0.9 0.12 0  0.92 0.12 0  0.9399999999999999 0.12 0  0.96 0.12 0  0.98 0.12 0  1 0.12 0  0 0.14 0  0.02 0.14 0  0.04 0.14 0  0.06 0.14 0  0.08 0.14 0  0.1 0.14 0  0.12 0.14 0  0.14 0.14 0  0.16 0.14 0  0.18 0.14 0  0.2 0.14 0  0.22 0.14 0  0.24 0.14 0  0.26 0.14 0  0.28 0.14 0  0.3 0.14 0  0.32 0.14 0  0.34 0.14 0  0.36 0.14 0  0.38 0.14 0  0.4 0.14 0  0.42 0.14 0  0.44 0.14 0  0.46 0.14 0  0.48 0.14 0  0.5 0.14 0  0.52 0.14 0  0.54 0.14 0  0.5600000000000001 0.14 0  0.58 0.14 0  0.6 0.14 0  0.62 0.14 0  0.64 0.14 0  0.66 0.14 0  0.68 0.14 0  0.7 0.14 0  0.72 0.14 0  0.74 0.14 0  0.76 0.14 0  0.78 0.14 0  0.8 0.14 0  0.82 0.14 0  0.84 0.14 0  0.86 0.14 0  0.88 0.14 0  0.9 0.14 0  0.92 0.14 0  0.9399999999999999 0.14 0  0.96 0.14 0  0.98 0.14 0  1 0.14 0  0 0.16 0  0.02 0.16 0  0.04 0.16 0  0.06 0.16 0  0.08 0.16 0  0.1 0.16 0  0.12 0.16 0  0.14 0.16 0  0.16 0.16 0  0.18 0.16 0  0.2 0.16 0  0.22 0.16 0  0.24 0.16 0  0.26 0.16 0  0.28 0.16 0  0.3 0.16 0  0.32 0.16 0  0.34 0.16 0  0.36 0.16 0  0.38 0.16 0  0.4 0.16 0  0.42 0.16 0  0.44 0.16 0  0.46 0.16 0  0.48 0.16 0  0.5 0.16 0  0.52 0.16 0  0.54 0.16 0  0.5600000000000001 0.16 0  0.58 0.16 0  0.6 0.16 0  0.62 0.16 0  0.64 0.16 0  0.66 0.16 0  0.68 0.16 0  0.7 0.16 0  0.72 0.16 0  0.74 0.16 0  0.76 0.16 0  0.78 0.16 0  0.8 0.16 0  0.82 0.16 0  0.84 0.16 0  0.86 0.16 0  0.88 0.16 0  0.9 0.16 0  0.92 0.16 0  0.9399999999999999 0.16 0  0.96 0.16 0  0.98 0.16 0  1 0.16 0  0 0.18 0  0.02 0.18 0  0.04 0.18 0  0.06 0.18 0  0.08 0.18 0  0.1 0.18 0  0.12 0.18 0  0.14 0.18 0  0.16 0.18 0  0.18 0.18 0  0.2 0.18 0  0.22 0.18 0  0.24 0.18 0  0.26 0.18 0  0.28 0.18 0  0.3 0.18 0  0.32 0.18 0  0.34 0.18 0  0.36 0.18 0  0.38 0.18 0  0.4 0.18 0  0.42 0.18 0  0.44 0.18 0  0.46 0.18 0  0.48 0.18 0  0.5 0.18 0  0.52 0.18 0  0.54 0.18 0  0.5600000000000001 0.18 0  0.58 0.18 0  0.6 0.18 0  0.62 0.18 0  0.64 0.18 0  0.66 0.18 0  0.68 0.18 0  0.7 0.18 0  0.72 0.18 0  0.74 0.18 0  0.76 0.18 0  0.78 0.18 0  0.8 0.18 0  0.82 0.18 0  0.84 0.18 0  0.86 0.18 0  0.88 0.18 0  0.9 0.18 0  0.92 0.18 0  0.9399999999999999 0.18 0  0.96 0.18 0  0.98 0.18 0  1 0.18 0  0 0.2 0  0.02 0.2 0  0.04 0.2 0  0.06 0.2 0  0.08 0.2 0  0.1 0.2 0  0.12 0.2 0  0.14 0.2 0  0.16 0.2 0  0.18 0.2 0  0.2 0.2 0  0.22 0.2 0  0.24 0.2 0  0.26 0.2 0  0.28 0.2 0  0.3 0.2 0  0.32 0.2 0  0.34 0.2 0  0.36 0.2 0  0.38 0.2 0  0.4 0.2 0  0.42 0.2 0  0.44 0.2 0  0.46 0.2 0  0.48 0.2 0  0.5 0.2 0  0.52 0.2 0  0.54 0.2 0  0.5600000000000001 0.2 0  0.58 0.2 0  0.6 0.2 0  0.62 0.2 0  0.64 0.2 0  0.66 0.2 0  0.68 0.2 0  0.7 0.2 0  0.72 0.2 0  0.74 0.2 0  0.76 0.2 0  0.78 0.2 0  0.8 0.2 0  0.82 0.2 0  0.84 0.2 0  0.86 0.2 0  0.88 0.2 0  0.9 0.2 0  0.92 0.2 0  0.9399999999999999 0.2 0  0.96 0.2 0  0.98 0.2 0  1 0.2 0  0 0.22 0  0.02 0.22 0  0.04 0.22 0  0.06 0.22 0  0.08 0.22 0  0.1 0.22 0  0.12 0.22 0  0.14 0.22 0  0.16 0.22 0  0.18 0.22 0  0.2 0.22 0  0.22 0.22 0  0.24 0.22 0  0.26 0.22 0  0.28 0.22 0  0.3 0.22 0  0.32 0.22 0  0.34 0.22 0  0.36 0.22 0  0.38 0.22 0  0.4 0.22 0  0.42 0.22 0  0.44 0.22 0  0.46 0.22 0  0.48 0.22 0  0.5 0.22 0  0.52 0.22 0  0.54 0.22 0  0.5600000000000001 0.22 0  0.58 0.22 0  0.6 0.22 0  0.62 0.22 0  0.64 0.22 0  0.66 0.22 0  0.68 0.22 0  0.7 0.22 0  0.72 0.22 0  0.74 0.22 0  0.76 0.22 0  0.78 0.22 0  0.8 0.22 0  0.82 0.22 0  0.84 0.22 0  0.86 0.22 0  0.88 0.22 0  0.9 0.22 0  0.92 0.22 0  0.9399999999999999 0.22 0  0.96 0.22 0  0.98 0.22 0  1 0.22 0  0 0.24 0  0.02 0.24 0  0.04 0.24 0  0.06 0.24 0  0.08 0.24 0  0.1 0.24 0  0.12 0.24 0  0.14 0.24 0  0.16 0.24 0  0.18 0.24 0  0.2 0.24 0  0.22 0.24 0  0.24 0.24 0  0.26 0.24 0  0.28 0.24 0  0.3 0.24 0  0.32 0.24 0  0.34 0.24 0  0.36 0.24 0  0.38 0.24 0  0.4 0.24 0  0.42 0.24 0  0.44 0.24 0  0.46 0.24 0  0.48 0.24 0  0.5 0.24 0  0.52 0.24 0  0.54 0.24 0  0.5600000000000001 0.24 0  0.58 0.24 0  0.6 0.24 0  0.62 0.24 0  0.64 0.24 0  0.66 0.24 0  0.68 0.24 0  0.7 0.24 0  0.72 0.24 0  0.74 0.24 0  0.76 0.24 0  0.78 0.24 0  0.8 0.24 0  0.82 0.24 0  0.84 0.24 0  0.86 0.24 0  0.88 0.24 0  0.9 0.24 0  0.92 0.24 0  0.9399999999999999 0.24 0  0.96 0.24 0  0.98 0.24 0  1 0.24 0  0 0.26 0  0.02 0.26 0  0.04 0.26 0  0.06 0.26 0  0.08 0.26 0  0.1 0.26 0  0.12 0.26 0  0.14 0.26 0  0.16 0.26 0  0.18 0.26 0  0.2 0.26 0  0.22 0.26 0  0.24 0.26 0  0.26 0.26 0  0.28 0.26 0  0.3 0.26 0  0.32 0.26 0  0.34 0.26 0  0.36 0.26 0  0.38 0.26 0  0.4 0.26 0  0.42 0.26 0  0.44 0.26 0  0.46 0.26 0  0.48 0.26 0  0.5 0.26 0  0.52 0.26 0  0.54 0.26 0  0.5600000000000001 0.26 0  0.58 0.26 0  0.6 0.26 0  0.62 0.26 0  0.64 0.26 0  0.66 0.26 0  0.68 0.26 0  0.7 0.26 0  0.72 0.26 0  0.74 0.26 0  0.76 0.26 0  0.78 0.26 0  0.8 0.26 0  0.82 0.26 0  0.84 0.26 0  0.86 0.26 0  0.88 0.26 0  0.9 0.26 0  0.92 0.26 0  0.9399999999999999 0.26 0  0.96 0.26 0  0.98 0.26 0  1 0.26 0  0 0.28 0  0.02 0.28 0  0.04 0.28 0  0.06 0.28 0  0.08 0.28 0  0.1 0.28 0  0.12 0.28 0  0.14 0.28 0  0.16 0.28 0  0.18 0.28 0  0.2 0.28 0  0.22 0.28 0  0.24 0.28 0  0.26 0.28 0  0.28 0.28 0  0.3 0.28 0  0.32 0.28 0  0.34 0.28 0  0.36 0.28 0  0.38 0.28 0  0.4 0.28 0  0.42 0.28 0  0.44 0.28 0  0.46 0.28 0  0.48 0.28 0  0.5 0.28 0  0.52 0.28 0  0.54 0.28 0  0.5600000000000001 0.28 0  0.58 0.28 0  0.6 0.28 0  0.62 0.28 0  0.64 0.28 0  0.66 0.28 0  0.68 0.28 0  0.7 0.28 0  0.72 0.28 0  0.74 0.28 0  0.76 0.28 0  0.78 0.28 0  0.8 0.28 0  0.82 0.28 0  0.84 0.28 0  0.86 0.28
[...]
<PointData  Vectors="f_510"> 
<DataArray  type="Float64"  Name="f_510"  NumberOfComponents="3" format="ascii">-5.0971075372971220e-01 -2.3486298095718362e-05 0.0000000000000000e+00  -5.0992074473861004e-01 1.0268470017447911e-04 0.0000000000000000e+00  -5.1043729793627812e-01 1.9929850276319524e-04 0.0000000000000000e+00  -5.1134164333611154e-01 2.9962025054974383e-04 0.0000000000000000e+00  -5.1266743491323774e-01 4.0131527284050124e-04 0.0000000000000000e+00  -5.1444969330795198e-01 5.0483510893095304e-04 0.0000000000000000e+00  -5.1672625688813301e-01 6.1079645124976372e-04 0.0000000000000000e+00  -5.1953646670499787e-01 7.1971446221663063e-04 0.0000000000000000e+00  -5.2292145674372081e-01 8.3214979040130779e-04 0.0000000000000000e+00  -5.2692420175207710e-01 9.4868779619323529e-04 0.0000000000000000e+00  -5.3158960015977541e-01 1.0699460747727195e-03 0.0000000000000000e+00  -5.3696457845178092e-01 1.1965799495832019e-03 0.0000000000000000e+00  -5.4309821339480524e-01 1.3292881863734398e-03 0.0000000000000000e+00  -5.5004187594742460e-01 1.4688195739362914e-03 0.0000000000000000e+00  -5.5784939939459821e-01 1.6159803808482196e-03 0.0000000000000000e+00  -5.6657727521071366e-01 1.7716429334022679e-03 0.0000000000000000e+00  -5.7628488094154351e-01 1.9367555658321870e-03 0.0000000000000000e+00  -5.8703474535880840e-01 2.1123542551390660e-03 0.0000000000000000e+00  -5.9889285733644693e-01 2.2995763278289313e-03 0.0000000000000000e+00  -6.1192902639222557e-01 2.4996767251086603e-03 0.0000000000000000e+00  -6.2621730471966119e-01 2.7140474427253627e-03 0.0000000000000000e+00  -6.4183648292649942e-01 2.9442409314756018e-03 0.0000000000000000e+00  -6.5887067475611794e-01 3.1919984693602327e-03 0.0000000000000000e+00  -6.7741001002227963e-01 3.4592848175893269e-03 0.0000000000000000e+00  -6.9755146013291858e-01 3.7483308772213639e-03 0.0000000000000000e+00  -7.1939982734477759e-01 4.0616866165684015e-03 0.0000000000000000e+00  -7.4306893786793315e-01 4.4022873000718324e-03 0.0000000000000000e+00  -7.6868309098318011e-01 4.7735371110640204e-03 0.0000000000000000e+00  -7.9637883267474008e-01 5.1794157610499372e-03 0.0000000000000000e+00  -8.2630714472548039e-01 5.6246158286198372e-03 0.0000000000000000e+00  -8.5863617147021010e-01 6.1147217028408177e-03 0.0000000000000000e+00  -8.9355465054322147e-01 6.6564456422586590e-03 0.0000000000000000e+00  -9.3127627733615481e-01 7.2579434577684761e-03 0.0000000000000000e+00  -9.7204532543001954e-01 7.9292431032517013e-03 0.0000000000000000e+00  -1.0161439833279371e+00 8.6828364384868972e-03 0.0000000000000000e+00  -1.0639020772003589e+00 9.5345118787601175e-03 0.0000000000000000e+00  -1.1157101790400568e+00 1.0504551363789652e-02 0.0000000000000000e+00  -1.1720376147953284e+00 1.1619493448724259e-02 0.0000000000000000e+00  -1.2334577933152109e+00 1.2914806092027458e-02 0.0000000000000000e+00  -1.3006846012181463e+00 1.4439072675210097e-02 0.0000000000000000e+00  -1.3746269069037076e+00 1.6260817229891315e-02 0.0000000000000000e+00  -1.4564706518204715e+00 1.8480316889848580e-02 0.0000000000000000e+00  -1.5478179906122393e+00 2.1250809371346966e-02 0.0000000000000000e+00  -1.6508918726601856e+00 2.4822383848212601e-02 0.0000000000000000e+00  -1.7690666729359734e+00 2.9655335660068539e-02 0.0000000000000000e+00  -1.9070688939368186e+00 3.6592904909673700e-02 0.0000000000000000e+00  -2.0761626787037324e+00 4.8481333082751009e-02 0.0000000000000000e+00  -2.2841760956142911e+00 7.2138243736104210e-02 0.0000000000000000e+00  -2.6069501807236524e+00 1.3579782352215955e-01 0.0000000000000000e+00  -3.1358886056358499e+00 4.5897063508285202e-01 0.0000000000000000e+00  -3.9646278620728137e+00 1.3368202120126604e+00 0.0000000000000000e+00  -5.0948510895273580e-01 7.2250797759580227e-06 0.0000000000000000e+00  -5.0976364708886590e-01 3.4079433088636220e-04 0.0000000000000000e+00  -5.1026082405940465e-01 6.5781823294510224e-04 0.0000000000000000e+00  -5.1116651538940971e-01 9.8513440142244794e-04 0.0000000000000000e+00  -5.1248920839034529e-01 1.3152764562723565e-03 0.0000000000000000e+00  -5.1426777892773679e-01 1.6517816373081008e-03 0.0000000000000000e+00  -5.1653975837308574e-01 1.9960638091602290e-03 0.0000000000000000e+00  -5.1934442866907560e-01 2.3498434195150112e-03 0.0000000000000000e+00  -5.2272289671534922e-01 2.7149062739327962e-03 0.0000000000000000e+00  -5.2671808336302728e-01 3.0931201518264498e-03 0.0000000000000000e+00  -5.3137482747893405e-01 3.4864583859443008e-03 0.0000000000000000e+00  -5.3673998618755259e-01 3.8970148071893656e-03 0.0000000000000000e+00  -5.4286255627123026e-01 4.3270226762232612e-03 0.0000000000000000e+00  -5.4979381675144623e-01 4.7788756414581871e-03 0.0000000000000000e+00  -5.5758749528648199e-01 5.2551516086061997e-03 0.0000000000000000e+00  -5.6629996192685084e-01 5.7586402024575245e-03 0.0000000000000000e+00  -5.7599045440769392e-01 6.2923746217928064e-03 0.0000000000000000e+00  -5.8672134012337951e-01 6.8596688867801946e-03 0.0000000000000000e+00  -5.9855842108774238e-01 7.4641617175076284e-03 0.0000000000000000e+00  -6.1157128963129859e-01 8.1098685986504705e-03 0.0000000000000000e+00  -6.2583374441063744e-01 8.8012439986315423e-03 0.0000000000000000e+00  -6.4142427861601536e-01 9.5432562538145943e-03 0.0000000000000000e+00  -6.5842665521596033e-01 1.0341478345947933e-02 0.0000000000000000e+00  -6.7693058788166582e-01 1.1202198759268527e-02 0.0000000000000000e+00  -6.9703255117343499e-01 1.2132557894160073e-02 0.0000000000000000e+00  -7.1883675004346947e-01 1.3140717271252751e-02 0.0000000000000000e+00  -7.4245628727174151e-01 1.4236071178783035e-02 0.0000000000000000e+00  -7.6801457889177427e-01 1.5429513784741266e-02 0.0000000000000000e+00  -7.9564708311917132e-01 1.6733779490769287e-02 0.0000000000000000e+00  -8.2550342942277177e-01 1.8163881110297223e-02 0.0000000000000000e+00  -8.5775006362846196e-01 1.9737680344104110e-02 0.0000000000000000e+00  -8.9257356600351545e-01 2.1476639641368821e-02 0.0000000000000000e+00  -9.3018485777761428e-01 2.3406826525887266e-02 0.0000000000000000e+00  -9.7082459628880546e-01 2.5560275229303913e-02 0.0000000000000000e+00  -1.0147701839442731e+00 2.7976863461427668e-02 0.0000000000000000e+00  -1.0623450039405127e+00 3.0706947381645588e-02 0.0000000000000000e+00  -1.1139307850853182e+00 3.3815138741351392e-02 0.0000000000000000e+00  -1.1699844499799326e+00 3.7385848502046050e-02 0.0000000000000000e+00  -1.2310615451242706e+00 4.1531645710417148e-02 0.0000000000000000e+00  -1.2978495300259485e+00 4.6406259012133175e-02 0.0000000000000000e+00  -1.3712164807299214e+00 5.2225562820911127e-02 0.0000000000000000e+00  -1.4522837147456129e+00 5.9302883091347215e-02 0.0000000000000000e+00  -1.5425407194480578e+00 6.8111595833937430e-02 0.0000000000000000e+00  -1.6440229294222231e+00 7.9404032265917468e-02 0.0000000000000000e+00  -1.7596295893387730e+00 9.4442417849777402e-02 0.0000000000000000e+00  -1.8936128586606935e+00 1.1554648058798514e-01 0.0000000000000000e+00  -2.0526907608837028e+00 1.4729609175750794e-01 0.0000000000000000e+00  -2.2450969399281631e+00 1.9874388745446786e-01 0.0000000000000000e+00  -2.4991064828175333e+00 2.9829603079754613e-01 0.0000000000000000e+00  -2.7321531030447859e+00 4.7003033551076284e-01 0.0000000000000000e+00  -3.2301565010826443e+00 8.6712227955844667e-01 0.0000000000000000e+00  -5.0885424603925133e-01 -9.5394599903808661e-07 0.0000000000000000e+00  -5.0925996167098719e-01 6.9727220323146202e-04 0.0000000000000000e+00  -5.0972791710974363e-01 1.4054682270594810e-03 0.0000000000000000e+00  -5.1063367868169918e-01 2.1208864017133377e-03 0.0000000000000000e+00  -5.1194654878200485e-01 2.8447925283732107e-03 0.0000000000000000e+00  -5.1371413244229935e-01 3.5823945372365469e-03 0.0000000000000000e+00  -5.1597217607957957e-01 4.3367122676944148e-03 0.0000000000000000e+00  -5.1876011363939822e-01 5.1115832678140004e-03 0.0000000000000000e+00  -5.2211889832950942e-01 5.9108626259769233e-03 0.0000000000000000e+00  -5.2609129536611932e-01 6.7386166045359033e-03 0.0000000000000000e+00  -5.3072196389342940e-01 7.5991348331244301e-03 0.0000000000000000e+00  -5.3605755175108138e-01 8.4969673610248812e-03 0.0000000000000000e+00  -5.4214681498774142e-01 9.4369650821342285e-03 0.0000000000000000e+00  -5.4904075598943480e-01 1.0424324620050333e-02 0.0000000000000000e+00  -5.5679278474171789e-01 1.1464639586121914e-02 0.0000000000000000e+00  -5.6545890625210415e-01 1.2563959438302845e-02 0.0000000000000000e+00  -5.7509793808271081e-01 1.3728857678411029e-02 0.0000000000000000e+00  -5.8577176280584708e-01 1.4966511485162790e-02 0.0000000000000000e+00  -5.9754562124752120e-01 1.6284795389612732e-02 0.0000000000000000e+00  -6.1048845370134774e-01 1.7692392259083117e-02 0.0000000000000000e+00  -6.2467329794406301e-01 1.9198925714472997e-02 0.0000000000000000e+00  -6.4017775496104556e-01 2.0815119229550576e-02 0.0000000000000000e+00  -6.5708453592257188e-01 2.2552988643116223e-02 0.0000000000000000e+00  -6.7548210731867542e-01 2.4426076786927726e-02 0.0000000000000000e+00  -6.9546545548989036e-01 2.6449741577302309e-02 0.0000000000000000e+00  -7.1713699740870507e-01 2.8641512505073873e-02 0.0000000000000000e+00  -7.4060767191109622e-01 3.1021535369388020e-02 0.0000000000000000e+00  -7.6599825526446963e-01 3.3613131906289950e-02 0.0000000000000000e+00  -7.9344095784942481e-01 3.6443510506809780e-02 0.0000000000000000e+00  -8.2308137605565324e-01 3.9544677783985537e-02 0.0000000000000000e+00  -8.5508089700134871e-01 4.2954620302905838e-02 0.0000000000000000e+00  -8.8961968592916252e-01 4.6718854418306727e-02 0.0000000000000000e+00  -9.2690043083916773e-01 5.0892484786946406e-02 0.0000000000000000e+00  -9.6715308157621682e-01 5.5542976742881722e-02 0.0000000000000000e+00  -1.0106409094837456e+00 6.0753947653784057e-02 0.0000000000000000e+00  -1.0576683407445715e+00 6.6630440286447948e-02 0.0000000000000000e+00  -1.1085912014499462e+00 7.3306396721304387e-02 0.0000000000000000e+00  -1.1638302761436103e+00 8.0955475575536201e-02 0.0000000000000000e+00  -1.2238894859709555e+00 8.9807079735645348e-02 0.0000000000000000e+00  -1.2893804903249739e+00 1.0017073763813644e-01 0.0000000000000000e+00  -1.3610565289666567e+00 1.1247429967380844e-01 0.0000000000000000e+00  -1.4398582411902401e+00 1.2732575654552455e-01 0.0000000000000000e+00  -1.5269791764079668e+00 1.4561710025236435e-01 0.0000000000000000e+00  -1.6239387802540550e+00 1.6870447503713615e-01 0.0000000000000000e+00  -1.7327208504502085e+00 1.9873715693969493e-01 0.0000000000000000e+00  -1.8556627122896157e+00 2.3926619376605318e-01 0.0000000000000000e+00  -1.9959553068452660e+00 2.9634332677637643e-01 0.0000000000000000e+00  -2.1542242972159453e+00 3.8099421074578449e-01 0.0000000000000000e+00  -2.3336099522671048e+00 5.1093125029554409e-01 0.0000000000000000e+00  -2.4887471321893537e+00 7.1395234692410081e-01 0.0000000000000000e+00  -2.7057992668329116e+00 1.0508178755281348e+00 0.0000000000000000e+00  -5.0788478367300416e-01 3.2678570034786224e-07 0.0000000000000000e+00  -5.0841659009652884e-01 1.0439697036325995e-03 0.0000000000000000e+00  -5.0884295068249374e-01 2.0912577104999349e-03 0.0000000000000000e+00  -5.0974713121684601e-01 3.1468389848578367e-03 0.0000000000000000e+00  -5.1104381677386823e-01 4.2171638053139174e-03 0.0000000000000000e+00  -5.1279327223453952e-01 5.3072149189820877e-03 0.0000000000000000e+00  -5.1502816855997435e-01 6.4220481617530542e-03 0.0000000000000000e+00  -5.1778839097567397e-01 7.5672423716424261e-03 0.0000000000000000e+00  -5.2111455585146216e-01 8.7484622284381072e-03 0.0000000000000000e+00  -5.2504919038628450e-01 9.9717003670278630e-03 0.0000000000000000e+00  -5.2963665368991142e-01 1.1243269902134197e-02 0.0000000000000000e+00  -5.3492324908527322e-01 1.2569867626245968e-02 0.0000000000000000e+00  -5.4095733637868515e-01 1.3958630357379025e-02 0.0000000000000000e+00  -5.4778946299007925e-01 1.5417200331178164e-02 0.0000000000000000e+00  -5.5547251691505273e-01 1.6953799479299158e-02 0.0000000000000000e+00  -5.6406190386333288e-01 1.8577314642784434e-02 0.0000000000000000e+00  -5.7361575225029693e-01 2.0297396175545036e-02 0.0000000000000000e+00  -5.8419515029105862e-01 2.2124572892823911e-02 0.0000000000000000e+00  -5.9586442037022291e-01 2.4070387048703706e-02 0.0000000000000000e+00  -6.0869143697136807e-01 2.6147553944212035e-02 0.0000000000000000e+00  -6.2274799582590390e-01 2.8370151958660030e-02 0.0000000000000000e+00  -6.3811024365540192e-01 3.0753850350858154e-02 0.0000000000000000e+00  -6.5485918002237276e-01 3.3316184214327312e-02 0.0000000000000000e+00  -6.7308124549797055e-01 3.6076888666306511e-02 0.0000000000000000e+00  -6.9286901375812726e-01 3.9058307946847420e-02 0.0000000000000000e+00  -7.1432200954023983e-01 4.2285899944278262e-02 0.0000000000000000e+00  -7.3754767990889902e-01 4.5788863244355479e-02 0.0000000000000000e+00  -7.6266255335194488e-01 4.9600922839998687e-02 0.0000000000000000e+00  -7.8979363033522842e-01 5.3761323194807455e-02 0.0000000000000000e+00  -8.1908006071273964e-01 5.8316095004020657e-02 0.0000000000000000e+00  -8.5067517862388498e-01 6.3319687122235249e-02 0.0000000000000000e+00  -8.8474898522985901e-01 6.8837091380020921e-02 0.0000000000000000e+00  -9.2149119507267252e-01 7.4946641073532688e-02 0.0000000000000000e+00  -9.6111499428330538e-01 8.1743742766107769e-02 0.0000000000000000e+00  -1.0038616994555212e+00 8.9345920123836908e-02 0.0000000000000000e+00  -1.0500065542623376e+00 9.7899731398704046e-02 0.0000000000000000e+00  -1.0998659541483118e+00 1.0759040802269532e-01 0.0000000000000000e+00  -1.1538064297166795e+00 1.1865551650073214e-01 0.0000000000000000e+00  -1.2122557282588720e+00 1.3140468198721494e-01 0.0000000000000000e+00  -1.2757161444407179e+00 1.4624862187431761e-01 0.0000000000000000e+00  -1.3447799239245009e+00 1.6374275118313081e-01 0.0000000000000000e+00  -1.4201444115794304e+00 1.8465398760945831e-01 0.0000000000000000e+00  -1.5026237641766620e+00 2.1006488117538755e-01 0.0000000000000000e+00  -1.5931336071974098e+00 2.4153797010543551e-01 0.0000000000000000e+00  -1.6926492004997840e+00 2.8137543150702371e-01 0.0000000000000000e+00  -1.8018898194191968e+00 3.3301031161782818e-01 0.0000000000000000e+00  -1.9212221014159605e+00 4.0159530081492434e-01 0.0000000000000000e+00  -2.0472869000948761e+00 4.9443722959651826e-01 0.0000000000000000e+00  -2.1789590781602741e+00 6.2109053653967261e-01 0.0000000000000000e+00  -2.2754747604640109e+00 7.9086834216165480e-01 0.0000000000000000e+00  -2.4103134438626359e+00 9.9062802506700065e-01 0.0000000000000000e+00  -5.0657294204033143e-01 3.3792383054588284e-07 0.0000000000000000e+00  -5.0722632864301798e-01 1.3844183469310229e-03 0.0000000000000000e+00  -5.0761075313432913e-01 2.7754197542055208e-03 0.0000000000000000e+00  -5.0851044915038335e-01 4.1794206452389097e-03 0.0000000000000000e+00  -5.0978484505515165e-01 5.6028178413637542e-03 0.0000000000000000e+00  -5.1150905635403132e-01 7.0521256990794439e-03 0.0000000000000000e+00  -5.1371173286722982e-01 8.5343980422302717e-03 0.0000000000000000e+00  -5.1643342515050406e-01 1.0056869456359335e-02 0.0000000000000000e+00  -5.1971423444869658e-01 1.1627070207738779e-02 0.0000000000000000e+00  -5.2359637832874129e-01 1.3252928061719692e-02 0.0000000000000000e+00  -5.2812379580765834e-01 1.4942794389302193e-02 0.0000000000000000e+00  -5.3334231687105305e-01 1.6705524940345284e-02 0.0000000000000000e+00  -5.3929975592901369e-01 1.8550551232715668e-02 0.0000000000000000e+00  -5.4604603524638262e-01 2.0487965863360463e-02 0.0000000000000000e+00  -5.5363332644355112e-01 2.2528618420450463e-02 0.0000000000000000e+00  -5.6211621383902632e-01 2.4684225497895295e-02 0.0000000000000000e+00  -5.7155188264368995e-01 2.6967497690826951e-02 0.0000000000000000e+00  -5.8200033552935226e-01 2.9392287286295383e-02 0.0000000000000000e+00  -5.9352464184975051e-01 3.1973761235125374e-02 0.0000000000000000e+00  -6.0619122463239128e-01 3.4728605111608128e-02 0.0000000000000000e+00  -6.2007019149398712e-01 3.7675265214522698e-02 0.0000000000000000e+00  -6.3523571688874358e-01 4.0834237834918484e-02 0.0000000000000000e+00  -6.5176648462781916e-01 4.4228417156400045e-02 0.0000000000000000e+00  -6.6974620146905994e-01 4.7883516454158982e-02 0.0000000000000000e+00  -6.8926419484208523e-01 5.1828581493211213e-02 0.0000000000000000e+00  -7.1041611052376252e-01 5.6096620670389626e-02 0.0000000000000000e+00  -7.3330472940219549e-01 6.0725384033104478e-02 0.0000000000000000e+00  -7.5804092644810761e-01 6.5758333605714495e-02 0.0000000000000000e+00  -7.8474479970967315e-01 7.1245861558357507e-02 0.0000000000000000e+00  -8.1354700255056200e-01 7.7246832264985521e-02 0.0000000000000000e+00  -8.4459031829202269e-01 8.3830551568014333e-02 0.0000000000000000e+00  -8.7803152239071269e-01 9.1079305085894124e-02 0.0000000000000000e+00  -9.1404358211284997e-01 9.9091662397655170e-02 0.0000000000000000e+00  -9.5281824482395761e-01 1.0798682331089074e-01 0.0000000000000000e+00  -9.9456905846923405e-01 1.1791039817486217e-01 0.0000000000000000e+00  -1.0395348410990839e+00 1.2904218464510503e-01 0.0000000000000000e+00  -1.0879835513723330e+00 1.4160675629224448e-01 0.0000000000000000e+00  -1.1402163647833923e+00 1.5588805578506032e-01 0.0000000000000000e+00  -1.1965714695022016e+00 1.7224974793465553e-01 0.0000000000000000e+00  -1.2574264381924536e+00 1.9116391731087587e-01 0.0000000000000000e+00  -1.3231969684570524e+00 2.1325188451895638e-01 0.0000000000000000e+00  -1.3943266340245091e+00 2.3934249033108973e-01 0.0000000000000000e+00  -1.4712601789137398e+00 2.7055497063824846e-01 0.0000000000000000e+00  -1.5543724097455873e+00 3.0841427895445611e-01 0.0000000000000000e+00  -1.6438511384481296e+00 3.5500274651908609e-01 0.0000000000000000e+00  -1.7393264942043756e+00 4.1313481209914421e-01 0.0000000000000000e+00  -1.8396991643649825e+00 4.8647685215771885e-01 0.0000000000000000e+00  -1.9407356169659329e+00 5.7938344420824839e-01 0.0000000000000000e+00  -2.0399150850451662e+00 6.9614751488781368e-01 0.0000000000000000e+00  -2.1089016255377420e+00 8.3703280210652775e-01 0.0000000000000000e+00  -2.2082424989229810e+00 9.9971837649112327e-01 0.0000000000000000e+00  -5.0492516632421958e-01 3.9124181808853514e-07 0.0000000000000000e+00  -5.0569765734118610e-01 1.7191647691966144e-03 0.0000000000000000e+00  -5.0603838366955656e-01 3.4463335267640211e-03 0.0000000000000000e+00  -5.0692908617006982e-01 5.1890230142306272e-03 0.0000000000000000e+00  -5.0817570333713735e-01 6.9555219775891590e-03 0.0000000000000000e+00  -5.0986763763754328e-01 8.7542003781314378e-03 0.0000000000000000e+00  -5.1202926386781800e-01 1.0593677662189768e-02 0.0000000000000000e+00  -5.1470187330705897e-01 1.2482862675858580e-02 0.0000000000000000e+00  -5.1792491141055019e-01 1.4431080358870862e-02 0.0000000000000000e+00  -5.2174021372892310e-01 1.6448109128947189e-02 0.0000000000000000e+00  -5.2619118524989583e-01 1.8544255893865876e-02 0.0000000000000000e+00  -5.3132306206834812e-01 2.0730441173431084e-02 0.0000000000000000e+00  -5.3718297316064512e-01 2.3018286969602425e-02 0.0000000000000000e+00  -5.4382005694541968e-01 2.5420219267126766e-02 0.0000000000000000e+00  -5.5128558816337636e-01 2.7949582924704657e-02 0.0000000000000000e+00  -5.5963312457566194e-01 3.0620773287332443e-02 0.0000000000000000e+00  -5.6891867479150537e-01 3.3449387620012629e-02 0.0000000000000000e+00  -5.7920089005694042e-01 3.6452400683464628e-02 0.0000000000000000e+00  -5.9054128322058830e-01 3.9648369672881038e-02 0.0000000000000000e+00  -6.0300447864750562e-01 4.3057675000908457e-02 0.0000000000000000e+00  -6.1665849750477930e-01 4.6702804999852333e-02 0.0000000000000000e+00  -6.3157508359147785e-01 5.0608694665133264e-02 0.0000000000000000e+00  -6.4783007574066653e-01 5.4803131203642129e-02 0.0000000000000000e+00  -6.6550383378070088e-01 5.9317242582661737e-02 0.0000000000000000e+00  -6.8468172608923150e-01 6.4186089760522924e-02 0.0000000000000000e+00  -7.05454