<?xml version="1.0"?>
<VTKFile type="UnstructuredGrid"  version="0.1"  >
<UnstructuredGrid>
<Piece  NumberOfPoints="2601" NumberOfCells="5000">
<Points>
<DataArray  type="Float64"  NumberOfComponents="3"  format="ascii">0 0 0  0.02 0 0  0.04 0 0  0.06 0 0  0.08 0 0  0.1 0 0  0.12 0 0  0.14 0 0  0.16 0 0  0.18 0 0  0.2 0 0  0.22 0 0  0.24 0 0  0.26 0 0  0.28 0 0  0.3 0 0  0.32 0 0  0.34 0 0  0.36 0 0  0.38 0 0  0.4 0 0  0.42 0 0  0.44 0 0  0.46 0 0  0.48 0 0  0.5 0 0  0.52 0 0  0.54 0 0  0.5600000000000001 0 0  0.58 0 0  0.6 0 0  0.62 0 0  0.64 0 0  0.66 0 0  0.68 0 0  0.7 0 0  0.72 0 0  0.74 0 0  0.76 0 0  0.78 0 0  0.8 0 0  0.82 0 0  0.84 0 0  0.86 0 0  0.88 0 0  0.9 0 0  0.92 0 0  0.9399999999999999 0 0  0.96 0 0  0.98 0 0  1 0 0  0 0.02 0  0.02 0.02 0  0.04 0.02 0  0.06 0.02 0  0.08 0.02 0  0.1 0.02 0  0.12 0.02 0  0.14 0.02 0  0.16 0.02 0  0.18 0.02 0  0.2 0.02 0  0.22 0.02 0  0.24 0.02 0  0.26 0.02 0  0.28 0.02 0  0.3 0.02 0  0.32 0.02 0  0.34 0.02 0  0.36 0.02 0  0.38 0.02 0  0.4 0.02 0  0.42 0.02 0  0.44 0.02 0  0.46 0.02 0  0.48 0.02 0  0.5 0.02 0  0.52 0.02 0  0.54 0.02 0  0.5600000000000001 0.02 0  0.58 0.02 0  0.6 0.02 0  0.62 0.02 0  0.64 0.02 0  0.66 0.02 0  0.68 0.02 0  0.7 0.02 0  0.72 0.02 0  0.74 0.02 0  0.76 0.02 0  0.78 0.02 0  0.8 0.02 0  0.82 0.02 0  0.84 0.02 0  0.86 0.02 0  0.88 0.02 0  0.9 0.02 0  0.92 0.02 0  0.9399999999999999 0.02 0  0.96 0.02 0  0.98 0.02 0  1 0.02 0  0 0.04 0  0.02 0.04 0  0.04 0.04 0  0.06 0.04 0  0.08 0.04 0  0.1 0.04 0  0.12 0.04 0  0.14 0.04 0  0.16 0.04 0  0.18 0.04 0  0.2 0.04 0  0.22 0.04 0  0.24 0.04 0  0.26 0.04 0  0.28 0.04 0  0.3 0.04 0  0.32 0.04 0  0.34 0.04 0  0.36 0.04 0  0.38 0.04 0  0.4 0.04 0  0.42 0.04 0  0.44 0.04 0  0.46 0.04 0  0.48 0.04 0  0.5 0.04 0  0.52 0.04 0  0.54 0.04 0  0.5600000000000001 0.04 0  0.58 0.04 0  0.6 0.04 0  0.62 0.04 0  0.64 0.04 0  0.66 0.04 0  0.68 0.04 0  0.7 0.04 0  0.72 0.04 0  0.74 0.04 0  0.76 0.04 0  0.78 0.04 0  0.8 0.04 0  0.82 0.04 0  0.84 0.04 0  0.86 0.04 0  0.88 0.04 0  0.9 0.04 0  0.92 0.04 0  0.9399999999999999 0.04 0  0.96 0.04 0  0.98 0.04 0  1 0.04 0  0 0.06 0  0.02 0.06 0  0.04 0.06 0  0.06 0.06 0  0.08 0.06 0  0.1 0.06 0  0.12 0.06 0  0.14 0.06 0  0.16 0.06 0  0.18 0.06 0  0.2 0.06 0  0.22 0.06 0  0.24 0.06 0  0.26 0.06 0  0.28 0.06 0  0.3 0.06 0  0.32 0.06 0  0.34 0.06 0  0.36 0.06 0  0.38 0.06 0  0.4 0.06 0  0.42 0.06 0  0.44 0.06 0  0.46 0.06 0  0.48 0.06 0  0.5 0.06 0  0.52 0.06 0  0.54 0.06 0  0.5600000000000001 0.06 0  0.58 0.06 0  0.6 0.06 0  0.62 0.06 0  0.64 0.06 0  0.66 0.06 0  0.68 0.06 0  0.7 0.06 0  0.72 0.06 0  0.74 0.06 0  0.76 0.06 0  0.78 0.06 0  0.8 0.06 0  0.82 0.06 0  0.84 0.06 0  0.86 0.06 0  0.88 0.06 0  0.9 0.06 0  0.92 0.06 0  0.9399999999999999 0.06 0  0.96 0.06 0  0.98 0.06 0  1 0.06 0  0 0.08 0  0.02 0.08 0  0.04 0.08 0  0.06 0.08 0  0.08 0.08 0  0.1 0.08 0  0.12 0.08 0  0.14 0.08 0  0.16 0.08 0  0.18 0.08 0  0.2 0.08 0  0.22 0.08 0  0.24 0.08 0  0.26 0.08 0  0.28 0.08 0  0.3 0.08 0  0.32 0.08 0  0.34 0.08 0  0.36 0.08 0  0.38 0.08 0  0.4 0.08 0  0.42 0.08 0  0.44 0.08 0  0.46 0.08 0  0.48 0.08 0  0.5 0.08 0  0.52 0.08 0  0.54 0.08 0  0.5600000000000001 0.08 0  0.58 0.08 0  0.6 0.08 0  0.62 0.08 0  0.64 0.08 0  0.66 0.08 0  0.68 0.08 0  0.7 0.08 0  0.72 0.08 0  0.74 0.08 0  0.76 0.08 0  0.78 0.08 0  0.8 0.08 0  0.82 0.08 0  0.84 0.08 0  0.86 0.08 0  0.88 0.08 0  0.9 0.08 0  0.92 0.08 0  0.9399999999999999 0.08 0  0.96 0.08 0  0.98 0.08 0  1 0.08 0  0 0.1 0  0.02 0.1 0  0.04 0.1 0  0.06 0.1 0  0.08 0.1 0  0.1 0.1 0  0.12 0.1 0  0.14 0.1 0  0.16 0.1 0  0.18 0.1 0  0.2 0.1 0  0.22 0.1 0  0.24 0.1 0  0.26 0.1 0  0.28 0.1 0  0.3 0.1 0  0.32 0.1 0  0.34 0.1 0  0.36 0.1 0  0.38 0.1 0  0.4 0.1 0  0.42 0.1 0  0.44 0.1 0  0.46 0.1 0  0.48 0.1 0  0.5 0.1 0  0.52 0.1 0  0.54 0.1 0  0.5600000000000001 0.1 0  0.58 0.1 0  0.6 0.1 0  0.62 0.1 0  0.64 0.1 0  0.66 0.1 0  0.68 0.1 0  0.7 0.1 0  0.72 0.1 0  0.74 0.1 0  0.76 0.1 0  0.78 0.1 0  0.8 0.1 0  0.82 0.1 0  0.84 0.1 0  0.86 0.1 0  0.88 0.1 0  0.9 0.1 0  0.92 0.1 0  0.9399999999999999 0.1 0  0.96 0.1 0  0.98 0.1 0  1 0.1 0  0 0.12 0  0.02 0.12 0  0.04 0.12 0  0.06 0.12 0  0.08 0.12 0  0.1 0.12 0  0.12 0.12 0  0.14 0.12 0  0.16 0.12 0  0.18 0.12 0  0.2 0.12 0  0.22 0.12 0  0.24 0.12 0  0.26 0.12 0  0.28 0.12 0  0.3 0.12 0  0.32 0.12 0  0.34 0.12 0  0.36 0.12 0  0.38 0.12 0  0.4 0.12 0  0.42 0.12 0  0.44 0.12 0  0.46 0.12 0  0.48 0.12 0  0.5 0.12 0  0.52 0.12 0  0.54 0.12 0  0.5600000000000001 0.12 0  0.58 0.12 0  0.6 0.12 0  0.62 0.12 0  0.64 0.12 0  0.66 0.12 0  0.68 0.12 0  0.7 0.12 0  0.72 0.12 0  0.74 0.12 0  0.76 0.12 0  0.78 0.12 0  0.8 0.12 0  0.82 0.12 0  0.84 0.12 0  0.86 0.12 0  0.88 0.12 0  0.9 0.12 0  0.92 0.12 0  0.9399999999999999 0.12 0  0.96 0.12 0  0.98 0.12 0  1 0.12 0  0 0.14 0  0.02 0.14 0  0.04 0.14 0  0.06 0.14 0  0.08 0.14 0  0.1 0.14 0  0.12 0.14 0  0.14 0.14 0  0.16 0.14 0  0.18 0.14 0  0.2 0.14 0  0.22 0.14 0  0.24 0.14 0  0.26 0.14 0  0.28 0.14 0  0.3 0.14 0  0.32 0.14 0  0.34 0.14 0  0.36 0.14 0  0.38 0.14 0  0.4 0.14 0  0.42 0.14 0  0.44 0.14 0  0.46 0.14 0  0.48 0.14 0  0.5 0.14 0  0.52 0.14 0  0.54 0.14 0  0.5600000000000001 0.14 0  0.58 0.14 0  0.6 0.14 0  0.62 0.14 0  0.64 0.14 0  0.66 0.14 0  0.68 0.14 0  0.7 0.14 0  0.72 0.14 0  0.74 0.14 0  0.76 0.14 0  0.78 0.14 0  0.8 0.14 0  0.82 0.14 0  0.84 0.14 0  0.86 0.14 0  0.88 0.14 0  0.9 0.14 0  0.92 0.14 0  0.9399999999999999 0.14 0  0.96 0.14 0  0.98 0.14 0  1 0.14 0  0 0.16 0  0.02 0.16 0  0.04 0.16 0  0.06 0.16 0  0.08 0.16 0  0.1 0.16 0  0.12 0.16 0  0.14 0.16 0  0.16 0.16 0  0.18 0.16 0  0.2 0.16 0  0.22 0.16 0  0.24 0.16 0  0.26 0.16 0  0.28 0.16 0  0.3 0.16 0  0.32 0.16 0  0.34 0.16 0  0.36 0.16 0  0.38 0.16 0  0.4 0.16 0  0.42 0.16 0  0.44 0.16 0  0.46 0.16 0  0.48 0.16 0  0.5 0.16 0  0.52 0.16 0  0.54 0.16 0  0.5600000000000001 0.16 0  0.58 0.16 0  0.6 0.16 0  0.62 0.16 0  0.64 0.16 0  0.66 0.16 0  0.68 0.16 0  0.7 0.16 0  0.72 0.16 0  0.74 0.16 0  0.76 0.16 0  0.78 0.16 0  0.8 0.16 0  0.82 0.16 0  0.84 0.16 0  0.86 0.16 0  0.88 0.16 0  0.9 0.16 0  0.92 0.16 0  0.9399999999999999 0.16 0  0.96 0.16 0  0.98 0.16 0  1 0.16 0  0 0.18 0  0.02 0.18 0  0.04 0.18 0  0.06 0.18 0  0.08 0.18 0  0.1 0.18 0  0.12 0.18 0  0.14 0.18 0  0.16 0.18 0  0.18 0.18 0  0.2 0.18 0  0.22 0.18 0  0.24 0.18 0  0.26 0.18 0  0.28 0.18 0  0.3 0.18 0  0.32 0.18 0  0.34 0.18 0  0.36 0.18 0  0.38 0.18 0  0.4 0.18 0  0.42 0.18 0  0.44 0.18 0  0.46 0.18 0  0.48 0.18 0  0.5 0.18 0  0.52 0.18 0  0.54 0.18 0  0.5600000000000001 0.18 0  0.58 0.18 0  0.6 0.18 0  0.62 0.18 0  0.64 0.18 0  0.66 0.18 0  0.68 0.18 0  0.7 0.18 0  0.72 0.18 0  0.74 0.18 0  0.76 0.18 0  0.78 0.18 0  0.8 0.18 0  0.82 0.18 0  0.84 0.18 0  0.86 0.18 0  0.88 0.18 0  0.9 0.18 0  0.92 0.18 0  0.9399999999999999 0.18 0  0.96 0.18 0  0.98 0.18 0  1 0.18 0  0 0.2 0  0.02 0.2 0  0.04 0.2 0  0.06 0.2 0  0.08 0.2 0  0.1 0.2 0  0.12 0.2 0  0.14 0.2 0  0.16 0.2 0  0.18 0.2 0  0.2 0.2 0  0.22 0.2 0  0.24 0.2 0  0.26 0.2 0  0.28 0.2 0  0.3 0.2 0  0.32 0.2 0  0.34 0.2 0  0.36 0.2 0  0.38 0.2 0  0.4 0.2 0  0.42 0.2 0  0.44 0.2 0  0.46 0.2 0  0.48 0.2 0  0.5 0.2 0  0.52 0.2 0  0.54 0.2 0  0.5600000000000001 0.2 0  0.58 0.2 0  0.6 0.2 0  0.62 0.2 0  0.64 0.2 0  0.66 0.2 0  0.68 0.2 0  0.7 0.2 0  0.72 0.2 0  0.74 0.2 0  0.76 0.2 0  0.78 0.2 0  0.8 0.2 0  0.82 0.2 0  0.84 0.2 0  0.86 0.2 0  0.88 0.2 0  0.9 0.2 0  0.92 0.2 0  0.9399999999999999 0.2 0  0.96 0.2 0  0.98 0.2 0  1 0.2 0  0 0.22 0  0.02 0.22 0  0.04 0.22 0  0.06 0.22 0  0.08 0.22 0  0.1 0.22 0  0.12 0.22 0  0.14 0.22 0  0.16 0.22 0  0.18 0.22 0  0.2 0.22 0  0.22 0.22 0  0.24 0.22 0  0.26 0.22 0  0.28 0.22 0  0.3 0.22 0  0.32 0.22 0  0.34 0.22 0  0.36 0.22 0  0.38 0.22 0  0.4 0.22 0  0.42 0.22 0  0.44 0.22 0  0.46 0.22 0  0.48 0.22 0  0.5 0.22 0  0.52 0.22 0  0.54 0.22 0  0.5600000000000001 0.22 0  0.58 0.22 0  0.6 0.22 0  0.62 0.22 0  0.64 0.22 0  0.66 0.22 0  0.68 0.22 0  0.7 0.22 0  0.72 0.22 0  0.74 0.22 0  0.76 0.22 0  0.78 0.22 0  0.8 0.22 0  0.82 0.22 0  0.84 0.22 0  0.86 0.22 0  0.88 0.22 0  0.9 0.22 0  0.92 0.22 0  0.9399999999999999 0.22 0  0.96 0.22 0  0.98 0.22 0  1 0.22 0  0 0.24 0  0.02 0.24 0  0.04 0.24 0  0.06 0.24 0  0.08 0.24 0  0.1 0.24 0  0.12 0.24 0  0.14 0.24 0  0.16 0.24 0  0.18 0.24 0  0.2 0.24 0  0.22 0.24 0  0.24 0.24 0  0.26 0.24 0  0.28 0.24 0  0.3 0.24 0  0.32 0.24 0  0.34 0.24 0  0.36 0.24 0  0.38 0.24 0  0.4 0.24 0  0.42 0.24 0  0.44 0.24 0  0.46 0.24 0  0.48 0.24 0  0.5 0.24 0  0.52 0.24 0  0.54 0.24 0  0.5600000000000001 0.24 0  0.58 0.24 0  0.6 0.24 0  0.62 0.24 0  0.64 0.24 0  0.66 0.24 0  0.68 0.24 0  0.7 0.24 0  0.72 0.24 0  0.74 0.24 0  0.76 0.24 0  0.78 0.24 0  0.8 0.24 0  0.82 0.24 0  0.84 0.24 0  0.86 0.24 0  0.88 0.24 0  0.9 0.24 0  0.92 0.24 0  0.9399999999999999 0.24 0  0.96 0.24 0  0.98 0.24 0  1 0.24 0  0 0.26 0  0.02 0.26 0  0.04 0.26 0  0.06 0.26 0  0.08 0.26 0  0.1 0.26 0  0.12 0.26 0  0.14 0.26 0  0.16 0.26 0  0.18 0.26 0  0.2 0.26 0  0.22 0.26 0  0.24 0.26 0  0.26 0.26 0  0.28 0.26 0  0.3 0.26 0  0.32 0.26 0  0.34 0.26 0  0.36 0.26 0  0.38 0.26 0  0.4 0.26 0  0.42 0.26 0  0.44 0.26 0  0.46 0.26 0  0.48 0.26 0  0.5 0.26 0  0.52 0.26 0  0.54 0.26 0  0.5600000000000001 0.26 0  0.58 0.26 0  0.6 0.26 0  0.62 0.26 0  0.64 0.26 0  0.66 0.26 0  0.68 0.26 0  0.7 0.26 0  0.72 0.26 0  0.74 0.26 0  0.76 0.26 0  0.78 0.26 0  0.8 0.26 0  0.82 0.26 0  0.84 0.26 0  0.86 0.26 0  0.88 0.26 0  0.9 0.26 0  0.92 0.26 0  0.9399999999999999 0.26 0  0.96 0.26 0  0.98 0.26 0  1 0.26 0  0 0.28 0  0.02 0.28 0  0.04 0.28 0  0.06 0.28 0  0.08 0.28 0  0.1 0.28 0  0.12 0.28 0  0.14 0.28 0  0.16 0.28 0  0.18 0.28 0  0.2 0.28 0  0.22 0.28 0  0.24 0.28 0  0.26 0.28 0  0.28 0.28 0  0.3 0.28 0  0.32 0.28 0  0.34 0.28 0  0.36 0.28 0  0.38 0.28 0  0.4 0.28 0  0.42 0.28 0  0.44 0.28 0  0.46 0.28 0  0.48 0.28 0  0.5 0.28 0  0.52 0.28 0  0.54 0.28 0  0.5600000000000001 0.28 0  0.58 0.28 0  0.6 0.28 0  0.62 0.28 0  0.64 0.28 0  0.66 0.28 0  0.68 0.28 0  0.7 0.28 0  0.72 0.28 0  0.74 0.28 0  0.76 0.28 0  0.78 0.28 0  0.8 0.28 0  0.82 0.28 0  0.84 0.28 0  0.86 0.28
[...]
<PointData  Vectors="f_354"> 
<DataArray  type="Float64"  Name="f_354"  NumberOfComponents="3" format="ascii">-5.5267516933466432e-01 -2.4027853863111461e-05 0.0000000000000000e+00  -5.5288976750183016e-01 1.0711627435389280e-04 0.0000000000000000e+00  -5.5340939160237845e-01 2.0764464856394037e-04 0.0000000000000000e+00  -5.5430734491291045e-01 3.1199233179786314e-04 0.0000000000000000e+00  -5.5560772731171137e-01 4.1772330341239135e-04 0.0000000000000000e+00  -5.5733606100278965e-01 5.2529294647407209e-04 0.0000000000000000e+00  -5.5952076859763444e-01 6.3532307688666135e-04 0.0000000000000000e+00  -5.6219181897797876e-01 7.4832879699866957e-04 0.0000000000000000e+00  -5.6538102826655579e-01 8.6487023157797100e-04 0.0000000000000000e+00  -5.6912211008657099e-01 9.8553090209997402e-04 0.0000000000000000e+00  -5.7345076159284947e-01 1.1109253579010864e-03 0.0000000000000000e+00  -5.7840477101587584e-01 1.2417046740445126e-03 0.0000000000000000e+00  -5.8402414294307692e-01 1.3785621562987186e-03 0.0000000000000000e+00  -5.9035124520387960e-01 1.5222399155633477e-03 0.0000000000000000e+00  -5.9743097988072003e-01 1.6735363158368901e-03 0.0000000000000000e+00  -6.0531098194465593e-01 1.8333145426060135e-03 0.0000000000000000e+00  -6.1404184980111109e-01 2.0025125435619521e-03 0.0000000000000000e+00  -6.2367741299376711e-01 2.1821546532771641e-03 0.0000000000000000e+00  -6.3427504351355168e-01 2.3733652897075571e-03 0.0000000000000000e+00  -6.4589601865157797e-01 2.5773852092340105e-03 0.0000000000000000e+00  -6.5860594521916282e-01 2.7955909364401131e-03 0.0000000000000000e+00  -6.7247525734762270e-01 3.0295181545174706e-03 0.0000000000000000e+00  -6.8757980314319034e-01 3.2808900678811120e-03 0.0000000000000000e+00  -7.0400153942519916e-01 3.5516520487051634e-03 0.0000000000000000e+00  -7.2182935892259881e-01 3.8440142849959251e-03 0.0000000000000000e+00  -7.4116008106974285e-01 4.1605046997754414e-03 0.0000000000000000e+00  -7.6209964652034923e-01 4.5040351725899415e-03 0.0000000000000000e+00  -7.8476456754331414e-01 4.8779851558251614e-03 0.0000000000000000e+00  -8.0928370280291639e-01 5.2863082781620134e-03 0.0000000000000000e+00  -8.3580044747201454e-01 5.7336696790181770e-03 0.0000000000000000e+00  -8.6447546087406768e-01 6.2256249478311416e-03 0.0000000000000000e+00  -8.9549009799084844e-01 6.7688561799809713e-03 0.0000000000000000e+00  -9.2905077455230378e-01 7.3714876565400857e-03 0.0000000000000000e+00  -9.6539458796526156e-01 8.0435144315201424e-03 0.0000000000000000e+00  -1.0047966544222449e+00 8.7973940895745752e-03 0.0000000000000000e+00  -1.0475798318155609e+00 9.6488793870846030e-03 0.0000000000000000e+00  -1.0941278281228877e+00 1.0618215205506020e-02 0.0000000000000000e+00  -1.1449032087217978e+00 1.1731901614781460e-02 0.0000000000000000e+00  -1.2004727274547036e+00 1.3025366612096774e-02 0.0000000000000000e+00  -1.2615437113013404e+00 1.4547152054496283e-02 0.0000000000000000e+00  -1.3290185985163565e+00 1.6365738730058161e-02 0.0000000000000000e+00  -1.4040768954165259e+00 1.8581358522196570e-02 0.0000000000000000e+00  -1.4883148070488308e+00 2.1347201338918174e-02 0.0000000000000000e+00  -1.5839479724776178e+00 2.4913304836932309e-02 0.0000000000000000e+00  -1.6943489490856971e+00 2.9739906234645848e-02 0.0000000000000000e+00  -1.8242221033165191e+00 3.6670174347282168e-02 0.0000000000000000e+00  -1.9848871344066514e+00 4.8550231892885293e-02 0.0000000000000000e+00  -2.1839283929928137e+00 7.2197457413598523e-02 0.0000000000000000e+00  -2.4980847952554153e+00 1.3584505545941236e-01 0.0000000000000000e+00  -3.0154873334707997e+00 4.5899922178242408e-01 0.0000000000000000e+00  -3.8401573627174064e+00 1.3368051956550000e+00 0.0000000000000000e+00  -5.5244123224087305e-01 7.4369412980110881e-06 0.0000000000000000e+00  -5.5272648040618766e-01 3.5240463337401270e-04 0.0000000000000000e+00  -5.5322615698719058e-01 6.8031449607316020e-04 0.0000000000000000e+00  -5.5412554457060748e-01 1.0187822973461199e-03 0.0000000000000000e+00  -5.5542279198829303e-01 1.3600658372799690e-03 0.0000000000000000e+00  -5.5714740636531224e-01 1.7077803990598092e-03 0.0000000000000000e+00  -5.5932749598141229e-01 2.0633386722871050e-03 0.0000000000000000e+00  -5.6199297224535527e-01 2.4284648106579110e-03 0.0000000000000000e+00  -5.6517562680597011e-01 2.8049439530841084e-03 0.0000000000000000e+00  -5.6890912139567862e-01 3.1946391425637845e-03 0.0000000000000000e+00  -5.7322909570436875e-01 3.5995151736176317e-03 0.0000000000000000e+00  -5.7817327069553148e-01 4.0216534670559807e-03 0.0000000000000000e+00  -5.8378157307584488e-01 4.4632709931965138e-03 0.0000000000000000e+00  -5.9009628085576882e-01 4.9267412044316809e-03 0.0000000000000000e+00  -5.9716219262491643e-01 5.4146178760245663e-03 0.0000000000000000e+00  -6.0502682408100761e-01 5.9296625371593539e-03 0.0000000000000000e+00  -6.1374063598650841e-01 6.4748762939435241e-03 0.0000000000000000e+00  -6.2335729869321121e-01 7.0535370440896776e-03 0.0000000000000000e+00  -6.3393399953504470e-01 7.6692433222917099e-03 0.0000000000000000e+00  -6.4553180083686301e-01 8.3259663316482078e-03 0.0000000000000000e+00  -6.5821605811143058e-01 9.0281121298749316e-03 0.0000000000000000e+00  -6.7205691032827297e-01 9.7805964811000581e-03 0.0000000000000000e+00  -6.8712985709099350e-01 1.0588935601834720e-02 0.0000000000000000e+00  -7.0351644136441327e-01 1.1459356987901913e-02 0.0000000000000000e+00  -7.2130506133267924e-01 1.2398935799673685e-02 0.0000000000000000e+00  -7.4059194144202978e-01 1.3415764039795903e-02 0.0000000000000000e+00  -7.6148230124477867e-01 1.4519162176565459e-02 0.0000000000000000e+00  -7.8409177210191860e-01 1.5719946234889287e-02 0.0000000000000000e+00  -8.0854812725765191e-01 1.7030768131814158e-02 0.0000000000000000e+00  -8.3499341192684540e-01 1.8466553839346509e-02 0.0000000000000000e+00  -8.6358658928627707e-01 2.0045073847403012e-02 0.0000000000000000e+00  -8.9450685931836238e-01 2.1787695014337017e-02 0.0000000000000000e+00  -9.2795786596355478e-01 2.3720384883436432e-02 0.0000000000000000e+00  -9.6417309276661212e-01 2.5875073305264958e-02 0.0000000000000000e+00  -1.0034228722092333e+00 2.8291529191936077e-02 0.0000000000000000e+00  -1.0460236216375576e+00 3.1019995461480206e-02 0.0000000000000000e+00  -1.0923502082149954e+00 3.4124966132208272e-02 0.0000000000000000e+00  -1.1428527967409350e+00 3.7690729855002915e-02 0.0000000000000000e+00  -1.1980802803114574e+00 4.1829728636477478e-02 0.0000000000000000e+00  -1.2587135653494348e+00 4.6695559084904893e-02 0.0000000000000000e+00  -1.3256142868060634e+00 5.2503958104155611e-02 0.0000000000000000e+00  -1.3998973832193178e+00 5.9568107809167797e-02 0.0000000000000000e+00  -1.4830462027040889e+00 6.8361232447292974e-02 0.0000000000000000e+00  -1.5770895991967460e+00 7.9635500437187007e-02 0.0000000000000000e+00  -1.6849223046897921e+00 9.4652957079504621e-02 0.0000000000000000e+00  -1.8107847227385048e+00 1.1573311851437947e-01 0.0000000000000000e+00  -1.9614100527365950e+00 1.4745557947555990e-01 0.0000000000000000e+00  -2.1449469318394097e+00 1.9887255713325111e-01 0.0000000000000000e+00  -2.3899731177107317e+00 2.9838939621720156e-01 0.0000000000000000e+00  -2.6126448153318718e+00 4.7008258702380218e-01 0.0000000000000000e+00  -3.1042878304101231e+00 8.6712372557419592e-01 0.0000000000000000e+00  -5.5178951611235272e-01 -9.8823897193090058e-07 0.0000000000000000e+00  -5.5220606058977317e-01 7.2025226715294246e-04 0.0000000000000000e+00  -5.5267567113460936e-01 1.4517081698699054e-03 0.0000000000000000e+00  -5.5357524880245790e-01 2.1904816515548194e-03 0.0000000000000000e+00  -5.5486254251092981e-01 2.9378144823598300e-03 0.0000000000000000e+00  -5.5657606974218121e-01 3.6989935085862333e-03 0.0000000000000000e+00  -5.5874210680317471e-01 4.4770365634103837e-03 0.0000000000000000e+00  -5.6139073188608435e-01 5.2757931991815011e-03 0.0000000000000000e+00  -5.6455358846005621e-01 6.0991171763986494e-03 0.0000000000000000e+00  -5.6826418886849017e-01 6.9510657100117623e-03 0.0000000000000000e+00  -5.7255799937136553e-01 7.8359109127947996e-03 0.0000000000000000e+00  -5.7747253793007836e-01 8.7581768628767782e-03 0.0000000000000000e+00  -5.8304749684647228e-01 9.7226799934692892e-03 0.0000000000000000e+00  -5.8932488386839277e-01 1.0734573915398119e-02 0.0000000000000000e+00  -5.9634918633449407e-01 1.1799400611691949e-02 0.0000000000000000e+00  -6.0416756137285643e-01 1.2923149228222273e-02 0.0000000000000000e+00  -6.1283005609915442e-01 1.4112324200211409e-02 0.0000000000000000e+00  -6.2238986262344465e-01 1.5374024812950391e-02 0.0000000000000000e+00  -6.3290361372638360e-01 1.6716038803823344e-02 0.0000000000000000e+00  -6.4443172638475565e-01 1.8146953273045982e-02 0.0000000000000000e+00  -6.5703880197390097e-01 1.9676287027892481e-02 0.0000000000000000e+00  -6.7079409405321633e-01 2.1314649610312004e-02 0.0000000000000000e+00  -6.8577205727351109e-01 2.3073933739412571e-02 0.0000000000000000e+00  -7.0205299431194312e-01 2.4967549872336334e-02 0.0000000000000000e+00  -7.1972382207157493e-01 2.7010714232865354e-02 0.0000000000000000e+00  -7.3887898399901231e-01 2.9220805242458462e-02 0.0000000000000000e+00  -7.5962154271988780e-01 3.1617808200856044e-02 0.0000000000000000e+00  -7.8206449687891988e-01 3.4224874867308561e-02 0.0000000000000000e+00  -8.0633237896283627e-01 3.7069034137922480e-02 0.0000000000000000e+00  -8.3256320820763041e-01 4.0182103578694270e-02 0.0000000000000000e+00  -8.6091089620115857e-01 4.3601871127952677e-02 0.0000000000000000e+00  -8.9154823503548597e-01 4.7373644911798123e-02 0.0000000000000000e+00  -9.2467064257089149e-01 5.1552311737217048e-02 0.0000000000000000e+00  -9.6050090202645477e-01 5.6205109447161734e-02 0.0000000000000000e+00  -9.9929522201885557e-01 6.1415418248692448e-02 0.0000000000000000e+00  -1.0413510701244457e+00 6.7288034030866223e-02 0.0000000000000000e+00  -1.0870174181502614e+00 7.3956642193953717e-02 0.0000000000000000e+00  -1.1367083002746132e+00 8.1594634719013889e-02 0.0000000000000000e+00  -1.1909209922988062e+00 9.0431137628513597e-02 0.0000000000000000e+00  -1.2502606078573444e+00 1.0077539179090018e-01 0.0000000000000000e+00  -1.3154739584767552e+00 1.1305494849543692e-01 0.0000000000000000e+00  -1.3874953017304699e+00 1.2787748635746812e-01 0.0000000000000000e+00  -1.4675121121743138e+00 1.4613466972567329e-01 0.0000000000000000e+00  -1.5570370829815632e+00 1.6918229496633158e-01 0.0000000000000000e+00  -1.6580502674313597e+00 1.9916926135372226e-01 0.0000000000000000e+00  -1.7728744084300716e+00 2.3964619469276402e-01 0.0000000000000000e+00  -1.9047268652147855e+00 2.9666433787128837e-01 0.0000000000000000e+00  -2.0541078216741466e+00 3.8124871368666469e-01 0.0000000000000000e+00  -2.2245923822488169e+00 5.1111086993698440e-01 0.0000000000000000e+00  -2.3692023974302820e+00 7.1404759831659748e-01 0.0000000000000000e+00  -2.5799792161688244e+00 1.0508181047833782e+00 0.0000000000000000e+00  -5.5078841424839153e-01 3.3372214832151302e-07 0.0000000000000000e+00  -5.5133508346718385e-01 1.0779725654738873e-03 0.0000000000000000e+00  -5.5176188012790550e-01 2.1592803448429836e-03 0.0000000000000000e+00  -5.5266002357673505e-01 3.2489677480911955e-03 0.0000000000000000e+00  -5.5393091511899717e-01 4.3535762952810961e-03 0.0000000000000000e+00  -5.5562614657739273e-01 5.4781196146580086e-03 0.0000000000000000e+00  -5.5776883744879424e-01 6.6276710818042881e-03 0.0000000000000000e+00  -5.6038954743138036e-01 7.8078245687146297e-03 0.0000000000000000e+00  -5.6351958975117922e-01 9.0242425793978977e-03 0.0000000000000000e+00  -5.6719224968824300e-01 1.0282904700141747e-02 0.0000000000000000e+00  -5.7144270381353135e-01 1.1590098258109074e-02 0.0000000000000000e+00  -5.7630813603703501e-01 1.2952481827217638e-02 0.0000000000000000e+00  -5.8182785295582495e-01 1.4377141434878534e-02 0.0000000000000000e+00  -5.8804341796546200e-01 1.5871655866032862e-02 0.0000000000000000e+00  -5.9499880711254138e-01 1.7444170843137010e-02 0.0000000000000000e+00  -6.0274058901206828e-01 1.9103484136119148e-02 0.0000000000000000e+00  -6.1131813250689149e-01 2.0859144059554725e-02 0.0000000000000000e+00  -6.2078384631451300e-01 2.2721564312806190e-02 0.0000000000000000e+00  -6.3119345583017739e-01 2.4702158847911108e-02 0.0000000000000000e+00  -6.4260632336772017e-01 2.6813501367797959e-02 0.0000000000000000e+00  -6.5508581949433187e-01 2.9069515248399121e-02 0.0000000000000000e+00  -6.6869975483100053e-01 3.1485701232503743e-02 0.0000000000000000e+00  -6.8352088383122278e-01 3.4079412280395828e-02 0.0000000000000000e+00  -6.9962749474506558e-01 3.6870187658645491e-02 0.0000000000000000e+00  -7.1710410337865571e-01 3.9880161944154391e-02 0.0000000000000000e+00  -7.3604227258123622e-01 4.3134569461675883e-02 0.0000000000000000e+00  -7.5654158490740342e-01 4.6662371252835323e-02 0.0000000000000000e+00  -7.7871080297742723e-01 5.0497040715088023e-02 0.0000000000000000e+00  -8.0266926116457804e-01 5.4677556604591608e-02 0.0000000000000000e+00  -8.2854854400804023e-01 5.9249669747153504e-02 0.0000000000000000e+00  -8.5649452198538500e-01 6.4267534926425104e-02 0.0000000000000000e+00  -8.8666983499902163e-01 6.9795835670384415e-02 0.0000000000000000e+00  -9.1925693936339203e-01 7.5912582717713714e-02 0.0000000000000000e+00  -9.5446186651951270e-01 8.2712845798026041e-02 0.0000000000000000e+00  -9.9251888230589558e-01 9.0313797439908874e-02 0.0000000000000000e+00  -1.0336962838273931e+00 9.8861630406865589e-02 0.0000000000000000e+00  -1.0783036243944770e+00 1.0854119620327361e-01 0.0000000000000000e+00  -1.1267006966364128e+00 1.1958966680394353e-01 0.0000000000000000e+00  -1.1793086151713037e+00 1.3231625793755836e-01 0.0000000000000000e+00  -1.2366231426020622e+00 1.4713126216389438e-01 0.0000000000000000e+00  -1.2992301098138161e+00 1.6458965339243078e-01 0.0000000000000000e+00  -1.3678205004572119e+00 1.8545789045727501e-01 0.0000000000000000e+00  -1.4432024010606930e+00 2.1081804431336229e-01 0.0000000000000000e+00  -1.5262847689122925e+00 2.4223214983870087e-01 0.0000000000000000e+00  -1.6180389288656776e+00 2.8200184989532195e-01 0.0000000000000000e+00  -1.7191704882802479e+00 3.3355961517570820e-01 0.0000000000000000e+00  -1.8300694956390222e+00 4.0205750459442002e-01 0.0000000000000000e+00  -1.9472614004471185e+00 4.9480164631744283e-01 0.0000000000000000e+00  -2.0700293550408286e+00 6.2134570916962151e-01 0.0000000000000000e+00  -2.1560471651350750e+00 7.9100209951933953e-01 0.0000000000000000e+00  -2.2846370136078717e+00 9.9062753697745609e-01 0.0000000000000000e+00  -5.4943396886177098e-01 3.4338925717928835e-07 0.0000000000000000e+00  -5.5010616664818712e-01 1.4293380891106640e-03 0.0000000000000000e+00  -5.5048984373150400e-01 2.8653570589295971e-03 0.0000000000000000e+00  -5.5138363177801331e-01 4.3145539004009956e-03 0.0000000000000000e+00  -5.5263193243415609e-01 5.7833804605265928e-03 0.0000000000000000e+00  -5.5430168146852088e-01 7.2783922919846325e-03 0.0000000000000000e+00  -5.5641187021303062e-01 8.8066775075143558e-03 0.0000000000000000e+00  -5.5899376704344761e-01 1.0375486057730362e-02 0.0000000000000000e+00  -5.6207817774399549e-01 1.1992346711775837e-02 0.0000000000000000e+00  -5.6569809381282010e-01 1.3665170085290191e-02 0.0000000000000000e+00  -5.6988828598207719e-01 1.5402273546411030e-02 0.0000000000000000e+00  -5.7468547948767656e-01 1.7212462303916536e-02 0.0000000000000000e+00  -5.8012845025551785e-01 1.9105100549470892e-02 0.0000000000000000e+00  -5.8625815137062076e-01 2.1090196664079651e-02 0.0000000000000000e+00  -5.9311785746877965e-01 2.3178498989964103e-02 0.0000000000000000e+00  -6.0075333086167360e-01 2.5381605704977925e-02 0.0000000000000000e+00  -6.0921301240218884e-01 2.7712091674018505e-02 0.0000000000000000e+00  -6.1854824060725011e-01 3.0183655993110601e-02 0.0000000000000000e+00  -6.2881350331321673e-01 3.2811294813119229e-02 0.0000000000000000e+00  -6.4006672697886935e-01 3.5611505150891710e-02 0.0000000000000000e+00  -6.5236960978542313e-01 3.8602526842362574e-02 0.0000000000000000e+00  -6.6578800594024057e-01 4.1804631664881901e-02 0.0000000000000000e+00  -6.8039237012012510e-01 4.5240471095542058e-02 0.0000000000000000e+00  -6.9625827285184494e-01 4.8935497373934808e-02 0.0000000000000000e+00  -7.1346699989347551e-01 5.2918476771292924e-02 0.0000000000000000e+00  -7.3210625143133901e-01 5.7222119612506117e-02 0.0000000000000000e+00  -7.5227096023042017e-01 6.1883859185989619e-02 0.0000000000000000e+00  -7.7406425185827843e-01 6.6946821973690063e-02 0.0000000000000000e+00  -7.9759857479984020e-01 7.2461045737977403e-02 0.0000000000000000e+00  -8.2299703368514243e-01 7.8485021512925801e-02 0.0000000000000000e+00  -8.5039496479388743e-01 8.5087662817851309e-02 0.0000000000000000e+00  -8.7994179897205838e-01 9.2350843928924287e-02 0.0000000000000000e+00  -9.1180326192661232e-01 1.0037270404058705e-01 0.0000000000000000e+00  -9.4616396302004724e-01 1.0927199351875735e-01 0.0000000000000000e+00  -9.8323041615673290e-01 1.1919385419986074e-01 0.0000000000000000e+00  -1.0232345095859785e+00 1.3031759612943997e-01 0.0000000000000000e+00  -1.0664373767050996e+00 1.4286728611299646e-01 0.0000000000000000e+00  -1.1131334720998434e+00 1.5712634077881724e-01 0.0000000000000000e+00  -1.1636543687012015e+00 1.7345787939306709e-01 0.0000000000000000e+00  -1.2183711250939544e+00 1.9233342106887313e-01 0.0000000000000000e+00  -1.2776930433362841e+00 2.1437370035496367e-01 0.0000000000000000e+00  -1.3420573559630173e+00 2.4040695025128411e-01 0.0000000000000000e+00  -1.4119027629368233e+00 2.7155177542477010e-01 0.0000000000000000e+00  -1.4875974192349135e+00 3.0933247213280074e-01 0.0000000000000000e+00  -1.5693252776744397e+00 3.5583068481610158e-01 0.0000000000000000e+00  -1.6567026931086364e+00 4.1386013178504105e-01 0.0000000000000000e+00  -1.7486542572124293e+00 4.8708643290936626e-01 0.0000000000000000e+00  -1.8408301027559426e+00 5.7986337754906325e-01 0.0000000000000000e+00  -1.9311183203460274e+00 6.9648310165660121e-01 0.0000000000000000e+00  -1.9896282555423586e+00 8.3720860510878203e-01 0.0000000000000000e+00  -2.0827026717686405e+00 9.9971855380479113e-01 0.0000000000000000e+00  -5.4773273720251003e-01 3.9751126688179201e-07 0.0000000000000000e+00  -5.4852795421569944e-01 1.7749195070214919e-03 0.0000000000000000e+00  -5.4886671812413490e-01 3.5579605349717889e-03 0.0000000000000000e+00  -5.4975156866677366e-01 5.3567293020643008e-03 0.0000000000000000e+00  -5.5097172159628316e-01 7.1795962971554538e-03 0.0000000000000000e+00  -5.5260888110199968e-01 9.0349925122336170e-03 0.0000000000000000e+00  -5.5467765361267318e-01 1.0931577071510169e-02 0.0000000000000000e+00  -5.5721010039597629e-01 1.2878277553420645e-02 0.0000000000000000e+00  -5.6023638114976582e-01 1.4884418166304819e-02 0.0000000000000000e+00  -5.6378912592180785e-01 1.6959756056063063e-02 0.0000000000000000e+00  -5.6790258955101169e-01 1.9114556221015336e-02 0.0000000000000000e+00  -5.7261292224221139e-01 2.1359676590008276e-02 0.0000000000000000e+00  -5.7795823337469043e-01 2.3706655648551123e-02 0.0000000000000000e+00  -5.8397871124918077e-01 2.6167814799322221e-02 0.0000000000000000e+00  -5.9071675283779190e-01 2.8756373070788734e-02 0.0000000000000000e+00  -5.9821711327268534e-01 3.1486578552681520e-02 0.0000000000000000e+00  -6.0652707634768732e-01 3.4373859646881312e-02 0.0000000000000000e+00  -6.1569664886351871e-01 3.7435000457581434e-02 0.0000000000000000e+00  -6.2577878202937887e-01 4.0688345542500511e-02 0.0000000000000000e+00  -6.3682962368768414e-01 4.4154040507269607e-02 0.0000000000000000e+00  -6.4890880578283905e-01 4.7854316520149612e-02 0.0000000000000000e+00  -6.6207977224313763e-01 5.1813828870310170e-02 0.0000000000000000e+00  -6.7641015330188980e-01 5.6060062335591965e-02 0.0000000000000000e+00  -6.9197219324215165e-01 6.0623819557371478e-02 0.0000000000000000e+00  -7.0884323959786033e-01 6.5539813106148065e-02 0.0000000000000000e+00  -7.27106