<?xml version="1.0"?>
<VTKFile type="UnstructuredGrid"  version="0.1"  >
<UnstructuredGrid>
<Piece  NumberOfPoints="2601" NumberOfCells="5000">
<Points>
<DataArray  type="Float64"  NumberOfComponents="3"  format="ascii">0 0 0  0.02 0 0  0.04 0 0  0.06 0 0  0.08 0 0  0.1 0 0  0.12 0 0  0.14 0 0  0.16 0 0  0.18 0 0  0.2 0 0  0.22 0 0  0.24 0 0  0.26 0 0  0.28 0 0  0.3 0 0  0.32 0 0  0.34 0 0  0.36 0 0  0.38 0 0  0.4 0 0  0.42 0 0  0.44 0 0  0.46 0 0  0.48 0 0  0.5 0 0  0.52 0 0  0.54 0 0  0.5600000000000001 0 0  0.58 0 0  0.6 0 0  0.62 0 0  0.64 0 0  0.66 0 0  0.68 0 0  0.7 0 0  0.72 0 0  0.74 0 0  0.76 0 0  0.78 0 0  0.8 0 0  0.82 0 0  0.84 0 0  0.86 0 0  0.88 0 0  0.9 0 0  0.92 0 0  0.9399999999999999 0 0  0.96 0 0  0.98 0 0  1 0 0  0 0.02 0  0.02 0.02 0  0.04 0.02 0  0.06 0.02 0  0.08 0.02 0  0.1 0.02 0  0.12 0.02 0  0.14 0.02 0  0.16 0.02 0  0.18 0.02 0  0.2 0.02 0  0.22 0.02 0  0.24 0.02 0  0.26 0.02 0  0.28 0.02 0  0.3 0.02 0  0.32 0.02 0  0.34 0.02 0  0.36 0.02 0  0.38 0.02 0  0.4 0.02 0  0.42 0.02 0  0.44 0.02 0  0.46 0.02 0  0.48 0.02 0  0.5 0.02 0  0.52 0.02 0  0.54 0.02 0  0.5600000000000001 0.02 0  0.58 0.02 0  0.6 0.02 0  0.62 0.02 0  0.64 0.02 0  0.66 0.02 0  0.68 0.02 0  0.7 0.02 0  0.72 0.02 0  0.74 0.02 0  0.76 0.02 0  0.78 0.02 0  0.8 0.02 0  0.82 0.02 0  0.84 0.02 0  0.86 0.02 0  0.88 0.02 0  0.9 0.02 0  0.92 0.02 0  0.9399999999999999 0.02 0  0.96 0.02 0  0.98 0.02 0  1 0.02 0  0 0.04 0  0.02 0.04 0  0.04 0.04 0  0.06 0.04 0  0.08 0.04 0  0.1 0.04 0  0.12 0.04 0  0.14 0.04 0  0.16 0.04 0  0.18 0.04 0  0.2 0.04 0  0.22 0.04 0  0.24 0.04 0  0.26 0.04 0  0.28 0.04 0  0.3 0.04 0  0.32 0.04 0  0.34 0.04 0  0.36 0.04 0  0.38 0.04 0  0.4 0.04 0  0.42 0.04 0  0.44 0.04 0  0.46 0.04 0  0.48 0.04 0  0.5 0.04 0  0.52 0.04 0  0.54 0.04 0  0.5600000000000001 0.04 0  0.58 0.04 0  0.6 0.04 0  0.62 0.04 0  0.64 0.04 0  0.66 0.04 0  0.68 0.04 0  0.7 0.04 0  0.72 0.04 0  0.74 0.04 0  0.76 0.04 0  0.78 0.04 0  0.8 0.04 0  0.82 0.04 0  0.84 0.04 0  0.86 0.04 0  0.88 0.04 0  0.9 0.04 0  0.92 0.04 0  0.9399999999999999 0.04 0  0.96 0.04 0  0.98 0.04 0  1 0.04 0  0 0.06 0  0.02 0.06 0  0.04 0.06 0  0.06 0.06 0  0.08 0.06 0  0.1 0.06 0  0.12 0.06 0  0.14 0.06 0  0.16 0.06 0  0.18 0.06 0  0.2 0.06 0  0.22 0.06 0  0.24 0.06 0  0.26 0.06 0  0.28 0.06 0  0.3 0.06 0  0.32 0.06 0  0.34 0.06 0  0.36 0.06 0  0.38 0.06 0  0.4 0.06 0  0.42 0.06 0  0.44 0.06 0  0.46 0.06 0  0.48 0.06 0  0.5 0.06 0  0.52 0.06 0  0.54 0.06 0  0.5600000000000001 0.06 0  0.58 0.06 0  0.6 0.06 0  0.62 0.06 0  0.64 0.06 0  0.66 0.06 0  0.68 0.06 0  0.7 0.06 0  0.72 0.06 0  0.74 0.06 0  0.76 0.06 0  0.78 0.06 0  0.8 0.06 0  0.82 0.06 0  0.84 0.06 0  0.86 0.06 0  0.88 0.06 0  0.9 0.06 0  0.92 0.06 0  0.9399999999999999 0.06 0  0.96 0.06 0  0.98 0.06 0  1 0.06 0  0 0.08 0  0.02 0.08 0  0.04 0.08 0  0.06 0.08 0  0.08 0.08 0  0.1 0.08 0  0.12 0.08 0  0.14 0.08 0  0.16 0.08 0  0.18 0.08 0  0.2 0.08 0  0.22 0.08 0  0.24 0.08 0  0.26 0.08 0  0.28 0.08 0  0.3 0.08 0  0.32 0.08 0  0.34 0.08 0  0.36 0.08 0  0.38 0.08 0  0.4 0.08 0  0.42 0.08 0  0.44 0.08 0  0.46 0.08 0  0.48 0.08 0  0.5 0.08 0  0.52 0.08 0  0.54 0.08 0  0.5600000000000001 0.08 0  0.58 0.08 0  0.6 0.08 0  0.62 0.08 0  0.64 0.08 0  0.66 0.08 0  0.68 0.08 0  0.7 0.08 0  0.72 0.08 0  0.74 0.08 0  0.76 0.08 0  0.78 0.08 0  0.8 0.08 0  0.82 0.08 0  0.84 0.08 0  0.86 0.08 0  0.88 0.08 0  0.9 0.08 0  0.92 0.08 0  0.9399999999999999 0.08 0  0.96 0.08 0  0.98 0.08 0  1 0.08 0  0 0.1 0  0.02 0.1 0  0.04 0.1 0  0.06 0.1 0  0.08 0.1 0  0.1 0.1 0  0.12 0.1 0  0.14 0.1 0  0.16 0.1 0  0.18 0.1 0  0.2 0.1 0  0.22 0.1 0  0.24 0.1 0  0.26 0.1 0  0.28 0.1 0  0.3 0.1 0  0.32 0.1 0  0.34 0.1 0  0.36 0.1 0  0.38 0.1 0  0.4 0.1 0  0.42 0.1 0  0.44 0.1 0  0.46 0.1 0  0.48 0.1 0  0.5 0.1 0  0.52 0.1 0  0.54 0.1 0  0.5600000000000001 0.1 0  0.58 0.1 0  0.6 0.1 0  0.62 0.1 0  0.64 0.1 0  0.66 0.1 0  0.68 0.1 0  0.7 0.1 0  0.72 0.1 0  0.74 0.1 0  0.76 0.1 0  0.78 0.1 0  0.8 0.1 0  0.82 0.1 0  0.84 0.1 0  0.86 0.1 0  0.88 0.1 0  0.9 0.1 0  0.92 0.1 0  0.9399999999999999 0.1 0  0.96 0.1 0  0.98 0.1 0  1 0.1 0  0 0.12 0  0.02 0.12 0  0.04 0.12 0  0.06 0.12 0  0.08 0.12 0  0.1 0.12 0  0.12 0.12 0  0.14 0.12 0  0.16 0.12 0  0.18 0.12 0  0.2 0.12 0  0.22 0.12 0  0.24 0.12 0  0.26 0.12 0  0.28 0.12 0  0.3 0.12 0  0.32 0.12 0  0.34 0.12 0  0.36 0.12 0  0.38 0.12 0  0.4 0.12 0  0.42 0.12 0  0.44 0.12 0  0.46 0.12 0  0.48 0.12 0  0.5 0.12 0  0.52 0.12 0  0.54 0.12 0  0.5600000000000001 0.12 0  0.58 0.12 0  0.6 0.12 0  0.62 0.12 0  0.64 0.12 0  0.66 0.12 0  0.68 0.12 0  0.7 0.12 0  0.72 0.12 0  0.74 0.12 0  0.76 0.12 0  0.78 0.12 0  0.8 0.12 0  0.82 0.12 0  0.84 0.12 0  0.86 0.12 0  0.88 0.12 0  0.9 0.12 0  0.92 0.12 0  0.9399999999999999 0.12 0  0.96 0.12 0  0.98 0.12 0  1 0.12 0  0 0.14 0  0.02 0.14 0  0.04 0.14 0  0.06 0.14 0  0.08 0.14 0  0.1 0.14 0  0.12 0.14 0  0.14 0.14 0  0.16 0.14 0  0.18 0.14 0  0.2 0.14 0  0.22 0.14 0  0.24 0.14 0  0.26 0.14 0  0.28 0.14 0  0.3 0.14 0  0.32 0.14 0  0.34 0.14 0  0.36 0.14 0  0.38 0.14 0  0.4 0.14 0  0.42 0.14 0  0.44 0.14 0  0.46 0.14 0  0.48 0.14 0  0.5 0.14 0  0.52 0.14 0  0.54 0.14 0  0.5600000000000001 0.14 0  0.58 0.14 0  0.6 0.14 0  0.62 0.14 0  0.64 0.14 0  0.66 0.14 0  0.68 0.14 0  0.7 0.14 0  0.72 0.14 0  0.74 0.14 0  0.76 0.14 0  0.78 0.14 0  0.8 0.14 0  0.82 0.14 0  0.84 0.14 0  0.86 0.14 0  0.88 0.14 0  0.9 0.14 0  0.92 0.14 0  0.9399999999999999 0.14 0  0.96 0.14 0  0.98 0.14 0  1 0.14 0  0 0.16 0  0.02 0.16 0  0.04 0.16 0  0.06 0.16 0  0.08 0.16 0  0.1 0.16 0  0.12 0.16 0  0.14 0.16 0  0.16 0.16 0  0.18 0.16 0  0.2 0.16 0  0.22 0.16 0  0.24 0.16 0  0.26 0.16 0  0.28 0.16 0  0.3 0.16 0  0.32 0.16 0  0.34 0.16 0  0.36 0.16 0  0.38 0.16 0  0.4 0.16 0  0.42 0.16 0  0.44 0.16 0  0.46 0.16 0  0.48 0.16 0  0.5 0.16 0  0.52 0.16 0  0.54 0.16 0  0.5600000000000001 0.16 0  0.58 0.16 0  0.6 0.16 0  0.62 0.16 0  0.64 0.16 0  0.66 0.16 0  0.68 0.16 0  0.7 0.16 0  0.72 0.16 0  0.74 0.16 0  0.76 0.16 0  0.78 0.16 0  0.8 0.16 0  0.82 0.16 0  0.84 0.16 0  0.86 0.16 0  0.88 0.16 0  0.9 0.16 0  0.92 0.16 0  0.9399999999999999 0.16 0  0.96 0.16 0  0.98 0.16 0  1 0.16 0  0 0.18 0  0.02 0.18 0  0.04 0.18 0  0.06 0.18 0  0.08 0.18 0  0.1 0.18 0  0.12 0.18 0  0.14 0.18 0  0.16 0.18 0  0.18 0.18 0  0.2 0.18 0  0.22 0.18 0  0.24 0.18 0  0.26 0.18 0  0.28 0.18 0  0.3 0.18 0  0.32 0.18 0  0.34 0.18 0  0.36 0.18 0  0.38 0.18 0  0.4 0.18 0  0.42 0.18 0  0.44 0.18 0  0.46 0.18 0  0.48 0.18 0  0.5 0.18 0  0.52 0.18 0  0.54 0.18 0  0.5600000000000001 0.18 0  0.58 0.18 0  0.6 0.18 0  0.62 0.18 0  0.64 0.18 0  0.66 0.18 0  0.68 0.18 0  0.7 0.18 0  0.72 0.18 0  0.74 0.18 0  0.76 0.18 0  0.78 0.18 0  0.8 0.18 0  0.82 0.18 0  0.84 0.18 0  0.86 0.18 0  0.88 0.18 0  0.9 0.18 0  0.92 0.18 0  0.9399999999999999 0.18 0  0.96 0.18 0  0.98 0.18 0  1 0.18 0  0 0.2 0  0.02 0.2 0  0.04 0.2 0  0.06 0.2 0  0.08 0.2 0  0.1 0.2 0  0.12 0.2 0  0.14 0.2 0  0.16 0.2 0  0.18 0.2 0  0.2 0.2 0  0.22 0.2 0  0.24 0.2 0  0.26 0.2 0  0.28 0.2 0  0.3 0.2 0  0.32 0.2 0  0.34 0.2 0  0.36 0.2 0  0.38 0.2 0  0.4 0.2 0  0.42 0.2 0  0.44 0.2 0  0.46 0.2 0  0.48 0.2 0  0.5 0.2 0  0.52 0.2 0  0.54 0.2 0  0.5600000000000001 0.2 0  0.58 0.2 0  0.6 0.2 0  0.62 0.2 0  0.64 0.2 0  0.66 0.2 0  0.68 0.2 0  0.7 0.2 0  0.72 0.2 0  0.74 0.2 0  0.76 0.2 0  0.78 0.2 0  0.8 0.2 0  0.82 0.2 0  0.84 0.2 0  0.86 0.2 0  0.88 0.2 0  0.9 0.2 0  0.92 0.2 0  0.9399999999999999 0.2 0  0.96 0.2 0  0.98 0.2 0  1 0.2 0  0 0.22 0  0.02 0.22 0  0.04 0.22 0  0.06 0.22 0  0.08 0.22 0  0.1 0.22 0  0.12 0.22 0  0.14 0.22 0  0.16 0.22 0  0.18 0.22 0  0.2 0.22 0  0.22 0.22 0  0.24 0.22 0  0.26 0.22 0  0.28 0.22 0  0.3 0.22 0  0.32 0.22 0  0.34 0.22 0  0.36 0.22 0  0.38 0.22 0  0.4 0.22 0  0.42 0.22 0  0.44 0.22 0  0.46 0.22 0  0.48 0.22 0  0.5 0.22 0  0.52 0.22 0  0.54 0.22 0  0.5600000000000001 0.22 0  0.58 0.22 0  0.6 0.22 0  0.62 0.22 0  0.64 0.22 0  0.66 0.22 0  0.68 0.22 0  0.7 0.22 0  0.72 0.22 0  0.74 0.22 0  0.76 0.22 0  0.78 0.22 0  0.8 0.22 0  0.82 0.22 0  0.84 0.22 0  0.86 0.22 0  0.88 0.22 0  0.9 0.22 0  0.92 0.22 0  0.9399999999999999 0.22 0  0.96 0.22 0  0.98 0.22 0  1 0.22 0  0 0.24 0  0.02 0.24 0  0.04 0.24 0  0.06 0.24 0  0.08 0.24 0  0.1 0.24 0  0.12 0.24 0  0.14 0.24 0  0.16 0.24 0  0.18 0.24 0  0.2 0.24 0  0.22 0.24 0  0.24 0.24 0  0.26 0.24 0  0.28 0.24 0  0.3 0.24 0  0.32 0.24 0  0.34 0.24 0  0.36 0.24 0  0.38 0.24 0  0.4 0.24 0  0.42 0.24 0  0.44 0.24 0  0.46 0.24 0  0.48 0.24 0  0.5 0.24 0  0.52 0.24 0  0.54 0.24 0  0.5600000000000001 0.24 0  0.58 0.24 0  0.6 0.24 0  0.62 0.24 0  0.64 0.24 0  0.66 0.24 0  0.68 0.24 0  0.7 0.24 0  0.72 0.24 0  0.74 0.24 0  0.76 0.24 0  0.78 0.24 0  0.8 0.24 0  0.82 0.24 0  0.84 0.24 0  0.86 0.24 0  0.88 0.24 0  0.9 0.24 0  0.92 0.24 0  0.9399999999999999 0.24 0  0.96 0.24 0  0.98 0.24 0  1 0.24 0  0 0.26 0  0.02 0.26 0  0.04 0.26 0  0.06 0.26 0  0.08 0.26 0  0.1 0.26 0  0.12 0.26 0  0.14 0.26 0  0.16 0.26 0  0.18 0.26 0  0.2 0.26 0  0.22 0.26 0  0.24 0.26 0  0.26 0.26 0  0.28 0.26 0  0.3 0.26 0  0.32 0.26 0  0.34 0.26 0  0.36 0.26 0  0.38 0.26 0  0.4 0.26 0  0.42 0.26 0  0.44 0.26 0  0.46 0.26 0  0.48 0.26 0  0.5 0.26 0  0.52 0.26 0  0.54 0.26 0  0.5600000000000001 0.26 0  0.58 0.26 0  0.6 0.26 0  0.62 0.26 0  0.64 0.26 0  0.66 0.26 0  0.68 0.26 0  0.7 0.26 0  0.72 0.26 0  0.74 0.26 0  0.76 0.26 0  0.78 0.26 0  0.8 0.26 0  0.82 0.26 0  0.84 0.26 0  0.86 0.26 0  0.88 0.26 0  0.9 0.26 0  0.92 0.26 0  0.9399999999999999 0.26 0  0.96 0.26 0  0.98 0.26 0  1 0.26 0  0 0.28 0  0.02 0.28 0  0.04 0.28 0  0.06 0.28 0  0.08 0.28 0  0.1 0.28 0  0.12 0.28 0  0.14 0.28 0  0.16 0.28 0  0.18 0.28 0  0.2 0.28 0  0.22 0.28 0  0.24 0.28 0  0.26 0.28 0  0.28 0.28 0  0.3 0.28 0  0.32 0.28 0  0.34 0.28 0  0.36 0.28 0  0.38 0.28 0  0.4 0.28 0  0.42 0.28 0  0.44 0.28 0  0.46 0.28 0  0.48 0.28 0  0.5 0.28 0  0.52 0.28 0  0.54 0.28 0  0.5600000000000001 0.28 0  0.58 0.28 0  0.6 0.28 0  0.62 0.28 0  0.64 0.28 0  0.66 0.28 0  0.68 0.28 0  0.7 0.28 0  0.72 0.28 0  0.74 0.28 0  0.76 0.28 0  0.78 0.28 0  0.8 0.28 0  0.82 0.28 0  0.84 0.28 0  0.86 0.28
[...]
<PointData  Vectors="f_276"> 
<DataArray  type="Float64"  Name="f_276"  NumberOfComponents="3" format="ascii">-5.7660767618940501e-01 -2.4122130736954151e-05 0.0000000000000000e+00  -5.7681894521403854e-01 1.0998872239577114e-04 0.0000000000000000e+00  -5.7732521022652239e-01 2.1250896726402759e-04 0.0000000000000000e+00  -5.7819566165144409e-01 3.1889008890763148e-04 0.0000000000000000e+00  -5.7944961061927802e-01 4.2663430805963440e-04 0.0000000000000000e+00  -5.8110792737484895e-01 5.3621534752059589e-04 0.0000000000000000e+00  -5.8319448319471556e-01 6.4826071961489621e-04 0.0000000000000000e+00  -5.8573476001860980e-01 7.6328683803412523e-04 0.0000000000000000e+00  -5.8875615272675874e-01 8.8185431591905063e-04 0.0000000000000000e+00  -5.9228801805201647e-01 1.0045461918417307e-03 0.0000000000000000e+00  -5.9636176041246569e-01 1.1319758078062194e-03 0.0000000000000000e+00  -6.0101093949247364e-01 1.2647923682299490e-03 0.0000000000000000e+00  -6.0627139552166665e-01 1.4036866710829296e-03 0.0000000000000000e+00  -6.1218139607084843e-01 1.5493976947629903e-03 0.0000000000000000e+00  -6.1878180684865014e-01 1.7027200497125505e-03 0.0000000000000000e+00  -6.2611628998392610e-01 1.8645125471555681e-03 0.0000000000000000e+00  -6.3423153407426147e-01 2.0357081371074801e-03 0.0000000000000000e+00  -6.4317752124912786e-01 2.2173255296396976e-03 0.0000000000000000e+00  -6.5300783769634030e-01 2.4104828868617015e-03 0.0000000000000000e+00  -6.6378003559576459e-01 2.6164140730413799e-03 0.0000000000000000e+00  -6.7555605628837223e-01 2.8364880792013853e-03 0.0000000000000000e+00  -6.8840272690058990e-01 3.0722324083897199e-03 0.0000000000000000e+00  -7.0239234570544906e-01 3.3253614327568445e-03 0.0000000000000000e+00  -7.1760337545763486e-01 3.5978110351881322e-03 0.0000000000000000e+00  -7.3412126908483910e-01 3.8917812521917848e-03 0.0000000000000000e+00  -7.5203945888591850e-01 4.2097891885309576e-03 0.0000000000000000e+00  -7.7146054936363395e-01 4.5547352344053760e-03 0.0000000000000000e+00  -7.9249776586505205e-01 4.9299866777188072e-03 0.0000000000000000e+00  -8.1527672754222691e-01 5.3394843042765764e-03 0.0000000000000000e+00  -8.3993763559136736e-01 5.7878797291063657e-03 0.0000000000000000e+00  -8.6663799897630867e-01 6.2807143332372813e-03 0.0000000000000000e+00  -8.9555606398275223e-01 6.8246553175267113e-03 0.0000000000000000e+00  -9.2689517732917404e-01 7.4278113803625014e-03 0.0000000000000000e+00  -9.6088940509681342e-01 8.1001613029496218e-03 0.0000000000000000e+00  -9.9781086783695072e-01 8.8541457042029970e-03 0.0000000000000000e+00  -1.0379794614456146e+00 9.7054996774863459e-03 0.0000000000000000e+00  -1.0817759636165407e+00 1.0674449736677452e-02 0.0000000000000000e+00  -1.1296600387825648e+00 1.1787476866444484e-02 0.0000000000000000e+00  -1.1821955683712613e+00 1.3079989238156889e-02 0.0000000000000000e+00  -1.2400870286143277e+00 1.4600508101645267e-02 0.0000000000000000e+00  -1.3042340441007190e+00 1.6417492783421219e-02 0.0000000000000000e+00  -1.3758132758047836e+00 1.8631152716165618e-02 0.0000000000000000e+00  -1.4564182956657412e+00 2.1394654108798056e-02 0.0000000000000000e+00  -1.5482613975394761e+00 2.4958009129943108e-02 0.0000000000000000e+00  -1.6547145074894500e+00 2.9781426363586917e-02 0.0000000000000000e+00  -1.7804711679029586e+00 3.6708039701869331e-02 0.0000000000000000e+00  -1.9368790694983267e+00 4.8583914788884922e-02 0.0000000000000000e+00  -2.1314008796958950e+00 7.2226313141030576e-02 0.0000000000000000e+00  -2.4412246572167686e+00 1.3586797098272085e-01 0.0000000000000000e+00  -2.9528450529352988e+00 4.5901307571011690e-01 0.0000000000000000e+00  -3.7754773656456999e+00 1.3367979597396893e+00 0.0000000000000000e+00  -5.7636847577955952e-01 7.5081684604232834e-06 0.0000000000000000e+00  -5.7665232791126464e-01 3.5853878003379780e-04 0.0000000000000000e+00  -5.7713851765178215e-01 6.9206817462582519e-04 0.0000000000000000e+00  -5.7801051427149186e-01 1.0361670607426353e-03 0.0000000000000000e+00  -5.7926133071910102e-01 1.3830277228508666e-03 0.0000000000000000e+00  -5.8091592378545076e-01 1.7363364188322922e-03 0.0000000000000000e+00  -5.8299785217226852e-01 2.0975112426171623e-03 0.0000000000000000e+00  -5.8553254329629301e-01 2.4682823142915269e-03 0.0000000000000000e+00  -5.8854736969301902e-01 2.8504362881237146e-03 0.0000000000000000e+00  -5.9207163753342695e-01 3.2458349492186698e-03 0.0000000000000000e+00  -5.9613669498055211e-01 3.6564395580151485e-03 0.0000000000000000e+00  -6.0077603557981896e-01 4.0843258633242079e-03 0.0000000000000000e+00  -6.0602542277490223e-01 4.5317031110010068e-03 0.0000000000000000e+00  -6.1192303539961601e-01 5.0009350093511143e-03 0.0000000000000000e+00  -6.1850963674832982e-01 5.4945635812463393e-03 0.0000000000000000e+00  -6.2582877075717458e-01 6.0153365948867358e-03 0.0000000000000000e+00  -6.3392698946642478e-01 6.5662393797595725e-03 0.0000000000000000e+00  -6.4285411690616245e-01 7.1505320304713158e-03 0.0000000000000000e+00  -6.5266355570759538e-01 7.7717932388649130e-03 0.0000000000000000e+00  -6.6341264419327661e-01 8.4339723109654856e-03 0.0000000000000000e+00  -6.7516307352347082e-01 9.1414513377356486e-03 0.0000000000000000e+00  -6.8798137678949578e-01 9.8991200313633589e-03 0.0000000000000000e+00  -7.0193950489742440e-01 1.0712466455712036e-02 0.0000000000000000e+00  -7.1711550789157452e-01 1.1587687838134348e-02 0.0000000000000000e+00  -7.3359434530722889e-01 1.2531826940302354e-02 0.0000000000000000e+00  -7.5146885561508470e-01 1.3552941222427350e-02 0.0000000000000000e+00  -7.7084092338341947e-01 1.4660314454354239e-02 0.0000000000000000e+00  -7.9182289422452001e-01 1.5864723795527145e-02 0.0000000000000000e+00  -8.1453930304883582e-01 1.7178780121044443e-02 0.0000000000000000e+00  -8.3912900227758436e-01 1.8617366176558858e-02 0.0000000000000000e+00  -8.6574780591480460e-01 2.0198207034712711e-02 0.0000000000000000e+00  -8.9457180643688872e-01 2.1942621940339579e-02 0.0000000000000000e+00  -9.2580157996582046e-01 2.3876528622443074e-02 0.0000000000000000e+00  -9.5966757991819396e-01 2.6031804911420046e-02 0.0000000000000000e+00  -9.9643714433390806e-01 2.8448165486322688e-02 0.0000000000000000e+00  -1.0364237297832350e+00 3.1175796807233844e-02 0.0000000000000000e+00  -1.0799992743363243e+00 3.4279134188078202e-02 0.0000000000000000e+00  -1.1276110432355919e+00 3.7842405289909807e-02 0.0000000000000000e+00  -1.1798050579633583e+00 4.1977988774323807e-02 0.0000000000000000e+00  -1.2372593774650551e+00 4.6839415425336796e-02 0.0000000000000000e+00  -1.3008328175343427e+00 5.2642353622047611e-02 0.0000000000000000e+00  -1.3716374994120886e+00 5.9699913853128027e-02 0.0000000000000000e+00  -1.4511540431977397e+00 6.8485244890796784e-02 0.0000000000000000e+00  -1.5414083223277366e+00 7.9750434368109510e-02 0.0000000000000000e+00  -1.6452930895653657e+00 9.4757438509468189e-02 0.0000000000000000e+00  -1.7670431140216678e+00 1.1582566935598987e-01 0.0000000000000000e+00  -1.9133993934333218e+00 1.4753458698867122e-01 0.0000000000000000e+00  -2.0924682366896890e+00 1.9893620629211148e-01 0.0000000000000000e+00  -2.3329788823223581e+00 2.9843548537210818e-01 0.0000000000000000e+00  -2.5504488691433607e+00 4.7010827200139255e-01 0.0000000000000000e+00  -3.0389070882518485e+00 8.6712434347712275e-01 0.0000000000000000e+00  -5.7570622007208161e-01 -1.0052444889032526e-06 0.0000000000000000e+00  -5.7612338780205108e-01 7.3193095379056312e-04 0.0000000000000000e+00  -5.7657916115172536e-01 1.4751092905075872e-03 0.0000000000000000e+00  -5.7745146490917143e-01 2.2256022957552590e-03 0.0000000000000000e+00  -5.7869228796646843e-01 2.9846572442078739e-03 0.0000000000000000e+00  -5.8033576084215388e-01 3.7576099636809049e-03 0.0000000000000000e+00  -5.8240358847046880e-01 4.5474853705407782e-03 0.0000000000000000e+00  -5.8492137605376371e-01 5.3581447049946846e-03 0.0000000000000000e+00  -5.8791635199721726e-01 6.1934440301382211e-03 0.0000000000000000e+00  -5.9141767693568248e-01 7.0574380369269451e-03 0.0000000000000000e+00  -5.9545652914635638e-01 7.9543914090421906e-03 0.0000000000000000e+00  -6.0006620254104825e-01 8.8888162022088772e-03 0.0000000000000000e+00  -6.0528222946070886e-01 9.8655123590264040e-03 0.0000000000000000e+00  -6.1114252174962069e-01 1.0889612582950067e-02 0.0000000000000000e+00  -6.1768753471904569e-01 1.1966633549935993e-02 0.0000000000000000e+00  -6.2496045701090952e-01 1.3102534694353471e-02 0.0000000000000000e+00  -6.3300743030950979e-01 1.4303786318400669e-02 0.0000000000000000e+00  -6.4187780371374603e-01 1.5577449128316340e-02 0.0000000000000000e+00  -6.5162442863481917e-01 1.6931267807345957e-02 0.0000000000000000e+00  -6.6230400140459422e-01 1.8373781894546189e-02 0.0000000000000000e+00  -6.7397746242835543e-01 1.9914458095799503e-02 0.0000000000000000e+00  -6.8671046279475101e-01 2.1563849277511010e-02 0.0000000000000000e+00  -7.0057391188913876e-01 2.3333786875545232e-02 0.0000000000000000e+00  -7.1564462292404218e-01 2.5237615423493176e-02 0.0000000000000000e+00  -7.3200607763189851e-01 2.7290480550002300e-02 0.0000000000000000e+00  -7.4974933698277901e-01 2.9509685380810422e-02 0.0000000000000000e+00  -7.6897413213580934e-01 3.1915135192736609e-02 0.0000000000000000e+00  -7.8979017952089470e-01 3.4529896971500829e-02 0.0000000000000000e+00  -8.1231877683865783e-01 3.7380910068783052e-02 0.0000000000000000e+00  -8.3669475409025273e-01 4.0499897718508295e-02 0.0000000000000000e+00  -8.6306887725859016e-01 4.3924548726137741e-02 0.0000000000000000e+00  -8.9161083450457823e-01 4.7700067273630825e-02 0.0000000000000000e+00  -9.2251297945138977e-01 5.1881231404250702e-02 0.0000000000000000e+00  -9.5599506877899387e-01 5.6535165369255631e-02 0.0000000000000000e+00  -9.9231032026440724e-01 6.1745130944507995e-02 0.0000000000000000e+00  -1.0317532443295041e+00 6.7615800728522676e-02 0.0000000000000000e+00  -1.0746698873623202e+00 7.4280731934490862e-02 0.0000000000000000e+00  -1.1214713876888724e+00 8.1913183391421132e-02 0.0000000000000000e+00  -1.1726521535009322e+00 9.0742142881190729e-02 0.0000000000000000e+00  -1.2288144545741724e+00 1.0107670772416920e-01 0.0000000000000000e+00  -1.2907022896320230e+00 1.1334427996935190e-01 0.0000000000000000e+00  -1.3592470974485453e+00 1.2815238262220560e-01 0.0000000000000000e+00  -1.4356336565480201e+00 1.4639251684551668e-01 0.0000000000000000e+00  -1.5213715933030334e+00 1.6942030605486821e-01 0.0000000000000000e+00  -1.6184393651681788e+00 1.9938446273819718e-01 0.0000000000000000e+00  -1.7291526658699334e+00 2.3983540438790313e-01 0.0000000000000000e+00  -1.8567422714680946e+00 2.9682412935681379e-01 0.0000000000000000e+00  -2.0016457931999403e+00 3.8137535302513337e-01 0.0000000000000000e+00  -2.1676558955454190e+00 5.1120020862078841e-01 0.0000000000000000e+00  -2.3069879512282099e+00 7.1409495466326189e-01 0.0000000000000000e+00  -2.5146224780618232e+00 1.0508182599381570e+00 0.0000000000000000e+00  -5.7468918416313408e-01 3.3621326722374641e-07 0.0000000000000000e+00  -5.7523845703059484e-01 1.0950576481265676e-03 0.0000000000000000e+00  -5.7565090512036199e-01 2.1934286738448799e-03 0.0000000000000000e+00  -5.7652188540790550e-01 3.3001917359078464e-03 0.0000000000000000e+00  -5.7774622479337889e-01 4.4219337986964946e-03 0.0000000000000000e+00  -5.7937133672176577e-01 5.5636938728610471e-03 0.0000000000000000e+00  -5.8141573072678843e-01 6.7305608808092719e-03 0.0000000000000000e+00  -5.8390551166297677e-01 7.9281404385854494e-03 0.0000000000000000e+00  -5.8686758203334666e-01 9.1620968896639274e-03 0.0000000000000000e+00  -5.9033088172012660e-01 1.0438405434492513e-02 0.0000000000000000e+00  -5.9432630494839289e-01 1.1763342032561037e-02 0.0000000000000000e+00  -5.9888681710599190e-01 1.3143547314305637e-02 0.0000000000000000e+00  -6.0404757028674672e-01 1.4586082830572689e-02 0.0000000000000000e+00  -6.0984603741460286e-01 1.6098496395068503e-02 0.0000000000000000e+00  -6.1632216794342942e-01 1.7688896265692870e-02 0.0000000000000000e+00  -6.2351856745530598e-01 1.9366036235399765e-02 0.0000000000000000e+00  -6.3148070484361496e-01 2.1139414097648968e-02 0.0000000000000000e+00  -6.4025715133144834e-01 2.3019386446323713e-02 0.0000000000000000e+00  -6.4989985650016635e-01 2.5017303498259799e-02 0.0000000000000000e+00  -6.6046446761528166e-01 2.7145668542786341e-02 0.0000000000000000e+00  -6.7201069991259732e-01 2.9418327813484885e-02 0.0000000000000000e+00  -6.8460276722311408e-01 3.1850698131175685e-02 0.0000000000000000e+00  -6.9830988445699205e-01 3.4460041704241350e-02 0.0000000000000000e+00  -7.1320685616148383e-01 3.7265800168445780e-02 0.0000000000000000e+00  -7.2937476877153240e-01 4.0290003544512100e-02 0.0000000000000000e+00  -7.4690180849378351e-01 4.3557774632161553e-02 0.0000000000000000e+00  -7.6588423228146640e-01 4.7097955939628837e-02 0.0000000000000000e+00  -7.8642752643208003e-01 5.0943895287648921e-02 0.0000000000000000e+00  -8.0864779644769036e-01 5.5134438782649516e-02 0.0000000000000000e+00  -8.3267344356573991e-01 5.9715197503270263e-02 0.0000000000000000e+00  -8.5864719860573480e-01 6.4740179369834561e-02 0.0000000000000000e+00  -8.8672860349637994e-01 7.0273913917177105e-02 0.0000000000000000e+00  -9.1709705628069904e-01 7.6394250751204262e-02 0.0000000000000000e+00  -9.4995556783556145e-01 8.3196091321187868e-02 0.0000000000000000e+00  -9.8553541914876375e-01 9.0796432717697023e-02 0.0000000000000000e+00  -1.0241019561875604e+00 9.9341285090308221e-02 0.0000000000000000e+00  -1.0659618129084707e+00 1.0901531011682619e-01 0.0000000000000000e+00  -1.1114718922625926e+00 1.2005548266185417e-01 0.0000000000000000e+00  -1.1610504475551682e+00 1.3277081392910889e-01 0.0000000000000000e+00  -1.2151904043132551e+00 1.4757138430596459e-01 0.0000000000000000e+00  -1.2744747872420961e+00 1.6501194748008619e-01 0.0000000000000000e+00  -1.3395917712736456e+00 1.8585873333150313e-01 0.0000000000000000e+00  -1.4113467489342333e+00 2.1119357398307043e-01 0.0000000000000000e+00  -1.4906456523884064e+00 2.4257825369497954e-01 0.0000000000000000e+00  -1.5784581146152681e+00 2.8231414981984665e-01 0.0000000000000000e+00  -1.6754831497390228e+00 3.3383344775505974e-01 0.0000000000000000e+00  -1.7821227171999923e+00 4.0228789448402269e-01 0.0000000000000000e+00  -1.8948447291610997e+00 4.9498327245645746e-01 0.0000000000000000e+00  -2.0131366170430915e+00 6.2147287275372043e-01 0.0000000000000000e+00  -2.0938910752972135e+00 7.9106875138930499e-01 0.0000000000000000e+00  -2.2193517956007973e+00 9.9062728725747662e-01 0.0000000000000000e+00  -5.7331340121813545e-01 3.4545999320612859e-07 0.0000000000000000e+00  -5.7399016820862714e-01 1.4518201321961379e-03 0.0000000000000000e+00  -5.7435894059760306e-01 2.9103546289349345e-03 0.0000000000000000e+00  -5.7522564652601949e-01 4.3821358976986850e-03 0.0000000000000000e+00  -5.7642726714911274e-01 5.8736441333952366e-03 0.0000000000000000e+00  -5.7802679280109126e-01 7.3914596263374484e-03 0.0000000000000000e+00  -5.8003855482374156e-01 8.9426906449587285e-03 0.0000000000000000e+00  -5.8248938922027471e-01 1.0534598000118125e-02 0.0000000000000000e+00  -5.8540569563619260e-01 1.2174712305881814e-02 0.0000000000000000e+00  -5.8881612875754163e-01 1.3870937608438282e-02 0.0000000000000000e+00  -5.9275118449766684e-01 1.5631575843790765e-02 0.0000000000000000e+00  -5.9724337719209375e-01 1.7465408210498797e-02 0.0000000000000000e+00  -6.0232733582352027e-01 1.9381766267553072e-02 0.0000000000000000e+00  -6.0803993056732897e-01 2.1390617154812771e-02 0.0000000000000000e+00  -6.1442041704968142e-01 2.3502659337499940e-02 0.0000000000000000e+00  -6.2151060216826459e-01 2.5729432440857840e-02 0.0000000000000000e+00  -6.2935503449130192e-01 2.8083444050234635e-02 0.0000000000000000e+00  -6.3800122275849924e-01 3.0578317196124222e-02 0.0000000000000000e+00  -6.4749988676617143e-01 3.3228963113755706e-02 0.0000000000000000e+00  -6.5790524575758458e-01 3.6051784986612663e-02 0.0000000000000000e+00  -6.6927535047555831e-01 3.9064919830559930e-02 0.0000000000000000e+00  -6.8167246629035072e-01 4.2288527546414573e-02 0.0000000000000000e+00  -6.9516351634704532e-01 4.5745138609817569e-02 0.0000000000000000e+00  -7.0982059553771459e-01 4.9460075067377221e-02 0.0000000000000000e+00  -7.2572156837053692e-01 5.3461963742388104e-02 0.0000000000000000e+00  -7.4295076655955838e-01 5.7783366197756987e-02 0.0000000000000000e+00  -7.6159980548269601e-01 6.2461557592217123e-02 0.0000000000000000e+00  -7.8176854263722528e-01 6.7539496862898479e-02 0.0000000000000000e+00  -8.0356620592094452e-01 7.3067044772010620e-02 0.0000000000000000e+00  -8.2711272497122346e-01 7.9102505865870060e-02 0.0000000000000000e+00  -8.5254030473686393e-01 8.5714597664205777e-02 0.0000000000000000e+00  -8.7999528642947045e-01 9.2984988915609829e-02 0.0000000000000000e+00  -9.0964034583140030e-01 1.0101160374969903e-01 0.0000000000000000e+00  -9.4165708009357507e-01 1.0991296792635169e-01 0.0000000000000000e+00  -9.7624902663121038e-01 1.1983398913211700e-01 0.0000000000000000e+00  -1.0136451309371255e+00 1.3095373371180205e-01 0.0000000000000000e+00  -1.0541036154791965e+00 1.4349601519867455e-01 0.0000000000000000e+00  -1.0979160536725610e+00 1.5774398732868000e-01 0.0000000000000000e+00  -1.1454111658084312e+00 1.7406049675700230e-01 0.0000000000000000e+00  -1.1969571823159473e+00 1.9291678008604471e-01 0.0000000000000000e+00  -1.2529606085771889e+00 2.1493327914204635e-01 0.0000000000000000e+00  -1.3138558782475360e+00 2.4093792347834203e-01 0.0000000000000000e+00  -1.3800790101174969e+00 2.7204900278771371e-01 0.0000000000000000e+00  -1.4519951419169856e+00 3.0979048562476935e-01 0.0000000000000000e+00  -1.5297865719516432e+00 3.5624367436077820e-01 0.0000000000000000e+00  -1.6130630078136838e+00 4.1422192894402643e-01 0.0000000000000000e+00  -1.7007611978184658e+00 4.8739049343297702e-01 0.0000000000000000e+00  -1.7884732706021229e+00 5.8010276606500299e-01 0.0000000000000000e+00  -1.8742918810865914e+00 6.9665049023651493e-01 0.0000000000000000e+00  -1.9275490708906036e+00 8.3729629624394619e-01 0.0000000000000000e+00  -2.0174855264093647e+00 9.9971864465653404e-01 0.0000000000000000e+00  -5.7158545795044524e-01 4.0033049034634374e-07 0.0000000000000000e+00  -5.7238718706906710e-01 1.8027705450332828e-03 0.0000000000000000e+00  -5.7271045828716649e-01 3.6137130812891084e-03 0.0000000000000000e+00  -5.7356827025517032e-01 5.4404752347047029e-03 0.0000000000000000e+00  -5.7474157520219715e-01 7.2914671504962572e-03 0.0000000000000000e+00  -5.7630836692029797e-01 9.1751514702053082e-03 0.0000000000000000e+00  -5.7827853943027507e-01 1.1100209180226528e-02 0.0000000000000000e+00  -5.8067974722730331e-01 1.3075579533936108e-02 0.0000000000000000e+00  -5.8353774931838165e-01 1.5110588356200371e-02 0.0000000000000000e+00  -5.8688084958942133e-01 1.7214983889056529e-02 0.0000000000000000e+00  -5.9073903742793188e-01 1.9399011650419434e-02 0.0000000000000000e+00  -5.9514426180667035e-01 2.1673499523697886e-02 0.0000000000000000e+00  -6.0013049478098401e-01 2.4049945305305204e-02 0.0000000000000000e+00  -6.0573385140689040e-01 2.6540619034194350e-02 0.0000000000000000e+00  -6.1199271935709487e-01 2.9158677638751428e-02 0.0000000000000000e+00  -6.1894790811861600e-01 3.1918296306943636e-02 0.0000000000000000e+00  -6.2664281903595642e-01 3.4834819662605883e-02 0.0000000000000000e+00  -6.3512363904034519e-01 3.7924937075105102e-02 0.0000000000000000e+00  -6.4443956128481483e-01 4.1206887325532938e-02 0.0000000000000000e+00  -6.5464303645878585e-01 4.4700699113320953e-02 0.0000000000000000e+00  -6.6579005921010592e-01 4.8428475481636368e-02 0.0000000000000000e+00  -6.7794049485098684e-01 5.2414732286333469e-02 0.0000000000000000e+00  -6.9115845238109452e-01 5.6686803475599928e-02 0.0000000000000000e+00  -7.0551271082110811e-01 6.1275329379565438e-02 0.0000000000000000e+00  -7.2107720689737576e-01 6.6214848694706896e-02 0.0000000000000000e+00  -7.37931