<?xml version="1.0"?>
<VTKFile type="UnstructuredGrid"  version="0.1"  >
<UnstructuredGrid>
<Piece  NumberOfPoints="2601" NumberOfCells="5000">
<Points>
<DataArray  type="Float64"  NumberOfComponents="3"  format="ascii">0 0 0  0.02 0 0  0.04 0 0  0.06 0 0  0.08 0 0  0.1 0 0  0.12 0 0  0.14 0 0  0.16 0 0  0.18 0 0  0.2 0 0  0.22 0 0  0.24 0 0  0.26 0 0  0.28 0 0  0.3 0 0  0.32 0 0  0.34 0 0  0.36 0 0  0.38 0 0  0.4 0 0  0.42 0 0  0.44 0 0  0.46 0 0  0.48 0 0  0.5 0 0  0.52 0 0  0.54 0 0  0.5600000000000001 0 0  0.58 0 0  0.6 0 0  0.62 0 0  0.64 0 0  0.66 0 0  0.68 0 0  0.7 0 0  0.72 0 0  0.74 0 0  0.76 0 0  0.78 0 0  0.8 0 0  0.82 0 0  0.84 0 0  0.86 0 0  0.88 0 0  0.9 0 0  0.92 0 0  0.9399999999999999 0 0  0.96 0 0  0.98 0 0  1 0 0  0 0.02 0  0.02 0.02 0  0.04 0.02 0  0.06 0.02 0  0.08 0.02 0  0.1 0.02 0  0.12 0.02 0  0.14 0.02 0  0.16 0.02 0  0.18 0.02 0  0.2 0.02 0  0.22 0.02 0  0.24 0.02 0  0.26 0.02 0  0.28 0.02 0  0.3 0.02 0  0.32 0.02 0  0.34 0.02 0  0.36 0.02 0  0.38 0.02 0  0.4 0.02 0  0.42 0.02 0  0.44 0.02 0  0.46 0.02 0  0.48 0.02 0  0.5 0.02 0  0.52 0.02 0  0.54 0.02 0  0.5600000000000001 0.02 0  0.58 0.02 0  0.6 0.02 0  0.62 0.02 0  0.64 0.02 0  0.66 0.02 0  0.68 0.02 0  0.7 0.02 0  0.72 0.02 0  0.74 0.02 0  0.76 0.02 0  0.78 0.02 0  0.8 0.02 0  0.82 0.02 0  0.84 0.02 0  0.86 0.02 0  0.88 0.02 0  0.9 0.02 0  0.92 0.02 0  0.9399999999999999 0.02 0  0.96 0.02 0  0.98 0.02 0  1 0.02 0  0 0.04 0  0.02 0.04 0  0.04 0.04 0  0.06 0.04 0  0.08 0.04 0  0.1 0.04 0  0.12 0.04 0  0.14 0.04 0  0.16 0.04 0  0.18 0.04 0  0.2 0.04 0  0.22 0.04 0  0.24 0.04 0  0.26 0.04 0  0.28 0.04 0  0.3 0.04 0  0.32 0.04 0  0.34 0.04 0  0.36 0.04 0  0.38 0.04 0  0.4 0.04 0  0.42 0.04 0  0.44 0.04 0  0.46 0.04 0  0.48 0.04 0  0.5 0.04 0  0.52 0.04 0  0.54 0.04 0  0.5600000000000001 0.04 0  0.58 0.04 0  0.6 0.04 0  0.62 0.04 0  0.64 0.04 0  0.66 0.04 0  0.68 0.04 0  0.7 0.04 0  0.72 0.04 0  0.74 0.04 0  0.76 0.04 0  0.78 0.04 0  0.8 0.04 0  0.82 0.04 0  0.84 0.04 0  0.86 0.04 0  0.88 0.04 0  0.9 0.04 0  0.92 0.04 0  0.9399999999999999 0.04 0  0.96 0.04 0  0.98 0.04 0  1 0.04 0  0 0.06 0  0.02 0.06 0  0.04 0.06 0  0.06 0.06 0  0.08 0.06 0  0.1 0.06 0  0.12 0.06 0  0.14 0.06 0  0.16 0.06 0  0.18 0.06 0  0.2 0.06 0  0.22 0.06 0  0.24 0.06 0  0.26 0.06 0  0.28 0.06 0  0.3 0.06 0  0.32 0.06 0  0.34 0.06 0  0.36 0.06 0  0.38 0.06 0  0.4 0.06 0  0.42 0.06 0  0.44 0.06 0  0.46 0.06 0  0.48 0.06 0  0.5 0.06 0  0.52 0.06 0  0.54 0.06 0  0.5600000000000001 0.06 0  0.58 0.06 0  0.6 0.06 0  0.62 0.06 0  0.64 0.06 0  0.66 0.06 0  0.68 0.06 0  0.7 0.06 0  0.72 0.06 0  0.74 0.06 0  0.76 0.06 0  0.78 0.06 0  0.8 0.06 0  0.82 0.06 0  0.84 0.06 0  0.86 0.06 0  0.88 0.06 0  0.9 0.06 0  0.92 0.06 0  0.9399999999999999 0.06 0  0.96 0.06 0  0.98 0.06 0  1 0.06 0  0 0.08 0  0.02 0.08 0  0.04 0.08 0  0.06 0.08 0  0.08 0.08 0  0.1 0.08 0  0.12 0.08 0  0.14 0.08 0  0.16 0.08 0  0.18 0.08 0  0.2 0.08 0  0.22 0.08 0  0.24 0.08 0  0.26 0.08 0  0.28 0.08 0  0.3 0.08 0  0.32 0.08 0  0.34 0.08 0  0.36 0.08 0  0.38 0.08 0  0.4 0.08 0  0.42 0.08 0  0.44 0.08 0  0.46 0.08 0  0.48 0.08 0  0.5 0.08 0  0.52 0.08 0  0.54 0.08 0  0.5600000000000001 0.08 0  0.58 0.08 0  0.6 0.08 0  0.62 0.08 0  0.64 0.08 0  0.66 0.08 0  0.68 0.08 0  0.7 0.08 0  0.72 0.08 0  0.74 0.08 0  0.76 0.08 0  0.78 0.08 0  0.8 0.08 0  0.82 0.08 0  0.84 0.08 0  0.86 0.08 0  0.88 0.08 0  0.9 0.08 0  0.92 0.08 0  0.9399999999999999 0.08 0  0.96 0.08 0  0.98 0.08 0  1 0.08 0  0 0.1 0  0.02 0.1 0  0.04 0.1 0  0.06 0.1 0  0.08 0.1 0  0.1 0.1 0  0.12 0.1 0  0.14 0.1 0  0.16 0.1 0  0.18 0.1 0  0.2 0.1 0  0.22 0.1 0  0.24 0.1 0  0.26 0.1 0  0.28 0.1 0  0.3 0.1 0  0.32 0.1 0  0.34 0.1 0  0.36 0.1 0  0.38 0.1 0  0.4 0.1 0  0.42 0.1 0  0.44 0.1 0  0.46 0.1 0  0.48 0.1 0  0.5 0.1 0  0.52 0.1 0  0.54 0.1 0  0.5600000000000001 0.1 0  0.58 0.1 0  0.6 0.1 0  0.62 0.1 0  0.64 0.1 0  0.66 0.1 0  0.68 0.1 0  0.7 0.1 0  0.72 0.1 0  0.74 0.1 0  0.76 0.1 0  0.78 0.1 0  0.8 0.1 0  0.82 0.1 0  0.84 0.1 0  0.86 0.1 0  0.88 0.1 0  0.9 0.1 0  0.92 0.1 0  0.9399999999999999 0.1 0  0.96 0.1 0  0.98 0.1 0  1 0.1 0  0 0.12 0  0.02 0.12 0  0.04 0.12 0  0.06 0.12 0  0.08 0.12 0  0.1 0.12 0  0.12 0.12 0  0.14 0.12 0  0.16 0.12 0  0.18 0.12 0  0.2 0.12 0  0.22 0.12 0  0.24 0.12 0  0.26 0.12 0  0.28 0.12 0  0.3 0.12 0  0.32 0.12 0  0.34 0.12 0  0.36 0.12 0  0.38 0.12 0  0.4 0.12 0  0.42 0.12 0  0.44 0.12 0  0.46 0.12 0  0.48 0.12 0  0.5 0.12 0  0.52 0.12 0  0.54 0.12 0  0.5600000000000001 0.12 0  0.58 0.12 0  0.6 0.12 0  0.62 0.12 0  0.64 0.12 0  0.66 0.12 0  0.68 0.12 0  0.7 0.12 0  0.72 0.12 0  0.74 0.12 0  0.76 0.12 0  0.78 0.12 0  0.8 0.12 0  0.82 0.12 0  0.84 0.12 0  0.86 0.12 0  0.88 0.12 0  0.9 0.12 0  0.92 0.12 0  0.9399999999999999 0.12 0  0.96 0.12 0  0.98 0.12 0  1 0.12 0  0 0.14 0  0.02 0.14 0  0.04 0.14 0  0.06 0.14 0  0.08 0.14 0  0.1 0.14 0  0.12 0.14 0  0.14 0.14 0  0.16 0.14 0  0.18 0.14 0  0.2 0.14 0  0.22 0.14 0  0.24 0.14 0  0.26 0.14 0  0.28 0.14 0  0.3 0.14 0  0.32 0.14 0  0.34 0.14 0  0.36 0.14 0  0.38 0.14 0  0.4 0.14 0  0.42 0.14 0  0.44 0.14 0  0.46 0.14 0  0.48 0.14 0  0.5 0.14 0  0.52 0.14 0  0.54 0.14 0  0.5600000000000001 0.14 0  0.58 0.14 0  0.6 0.14 0  0.62 0.14 0  0.64 0.14 0  0.66 0.14 0  0.68 0.14 0  0.7 0.14 0  0.72 0.14 0  0.74 0.14 0  0.76 0.14 0  0.78 0.14 0  0.8 0.14 0  0.82 0.14 0  0.84 0.14 0  0.86 0.14 0  0.88 0.14 0  0.9 0.14 0  0.92 0.14 0  0.9399999999999999 0.14 0  0.96 0.14 0  0.98 0.14 0  1 0.14 0  0 0.16 0  0.02 0.16 0  0.04 0.16 0  0.06 0.16 0  0.08 0.16 0  0.1 0.16 0  0.12 0.16 0  0.14 0.16 0  0.16 0.16 0  0.18 0.16 0  0.2 0.16 0  0.22 0.16 0  0.24 0.16 0  0.26 0.16 0  0.28 0.16 0  0.3 0.16 0  0.32 0.16 0  0.34 0.16 0  0.36 0.16 0  0.38 0.16 0  0.4 0.16 0  0.42 0.16 0  0.44 0.16 0  0.46 0.16 0  0.48 0.16 0  0.5 0.16 0  0.52 0.16 0  0.54 0.16 0  0.5600000000000001 0.16 0  0.58 0.16 0  0.6 0.16 0  0.62 0.16 0  0.64 0.16 0  0.66 0.16 0  0.68 0.16 0  0.7 0.16 0  0.72 0.16 0  0.74 0.16 0  0.76 0.16 0  0.78 0.16 0  0.8 0.16 0  0.82 0.16 0  0.84 0.16 0  0.86 0.16 0  0.88 0.16 0  0.9 0.16 0  0.92 0.16 0  0.9399999999999999 0.16 0  0.96 0.16 0  0.98 0.16 0  1 0.16 0  0 0.18 0  0.02 0.18 0  0.04 0.18 0  0.06 0.18 0  0.08 0.18 0  0.1 0.18 0  0.12 0.18 0  0.14 0.18 0  0.16 0.18 0  0.18 0.18 0  0.2 0.18 0  0.22 0.18 0  0.24 0.18 0  0.26 0.18 0  0.28 0.18 0  0.3 0.18 0  0.32 0.18 0  0.34 0.18 0  0.36 0.18 0  0.38 0.18 0  0.4 0.18 0  0.42 0.18 0  0.44 0.18 0  0.46 0.18 0  0.48 0.18 0  0.5 0.18 0  0.52 0.18 0  0.54 0.18 0  0.5600000000000001 0.18 0  0.58 0.18 0  0.6 0.18 0  0.62 0.18 0  0.64 0.18 0  0.66 0.18 0  0.68 0.18 0  0.7 0.18 0  0.72 0.18 0  0.74 0.18 0  0.76 0.18 0  0.78 0.18 0  0.8 0.18 0  0.82 0.18 0  0.84 0.18 0  0.86 0.18 0  0.88 0.18 0  0.9 0.18 0  0.92 0.18 0  0.9399999999999999 0.18 0  0.96 0.18 0  0.98 0.18 0  1 0.18 0  0 0.2 0  0.02 0.2 0  0.04 0.2 0  0.06 0.2 0  0.08 0.2 0  0.1 0.2 0  0.12 0.2 0  0.14 0.2 0  0.16 0.2 0  0.18 0.2 0  0.2 0.2 0  0.22 0.2 0  0.24 0.2 0  0.26 0.2 0  0.28 0.2 0  0.3 0.2 0  0.32 0.2 0  0.34 0.2 0  0.36 0.2 0  0.38 0.2 0  0.4 0.2 0  0.42 0.2 0  0.44 0.2 0  0.46 0.2 0  0.48 0.2 0  0.5 0.2 0  0.52 0.2 0  0.54 0.2 0  0.5600000000000001 0.2 0  0.58 0.2 0  0.6 0.2 0  0.62 0.2 0  0.64 0.2 0  0.66 0.2 0  0.68 0.2 0  0.7 0.2 0  0.72 0.2 0  0.74 0.2 0  0.76 0.2 0  0.78 0.2 0  0.8 0.2 0  0.82 0.2 0  0.84 0.2 0  0.86 0.2 0  0.88 0.2 0  0.9 0.2 0  0.92 0.2 0  0.9399999999999999 0.2 0  0.96 0.2 0  0.98 0.2 0  1 0.2 0  0 0.22 0  0.02 0.22 0  0.04 0.22 0  0.06 0.22 0  0.08 0.22 0  0.1 0.22 0  0.12 0.22 0  0.14 0.22 0  0.16 0.22 0  0.18 0.22 0  0.2 0.22 0  0.22 0.22 0  0.24 0.22 0  0.26 0.22 0  0.28 0.22 0  0.3 0.22 0  0.32 0.22 0  0.34 0.22 0  0.36 0.22 0  0.38 0.22 0  0.4 0.22 0  0.42 0.22 0  0.44 0.22 0  0.46 0.22 0  0.48 0.22 0  0.5 0.22 0  0.52 0.22 0  0.54 0.22 0  0.5600000000000001 0.22 0  0.58 0.22 0  0.6 0.22 0  0.62 0.22 0  0.64 0.22 0  0.66 0.22 0  0.68 0.22 0  0.7 0.22 0  0.72 0.22 0  0.74 0.22 0  0.76 0.22 0  0.78 0.22 0  0.8 0.22 0  0.82 0.22 0  0.84 0.22 0  0.86 0.22 0  0.88 0.22 0  0.9 0.22 0  0.92 0.22 0  0.9399999999999999 0.22 0  0.96 0.22 0  0.98 0.22 0  1 0.22 0  0 0.24 0  0.02 0.24 0  0.04 0.24 0  0.06 0.24 0  0.08 0.24 0  0.1 0.24 0  0.12 0.24 0  0.14 0.24 0  0.16 0.24 0  0.18 0.24 0  0.2 0.24 0  0.22 0.24 0  0.24 0.24 0  0.26 0.24 0  0.28 0.24 0  0.3 0.24 0  0.32 0.24 0  0.34 0.24 0  0.36 0.24 0  0.38 0.24 0  0.4 0.24 0  0.42 0.24 0  0.44 0.24 0  0.46 0.24 0  0.48 0.24 0  0.5 0.24 0  0.52 0.24 0  0.54 0.24 0  0.5600000000000001 0.24 0  0.58 0.24 0  0.6 0.24 0  0.62 0.24 0  0.64 0.24 0  0.66 0.24 0  0.68 0.24 0  0.7 0.24 0  0.72 0.24 0  0.74 0.24 0  0.76 0.24 0  0.78 0.24 0  0.8 0.24 0  0.82 0.24 0  0.84 0.24 0  0.86 0.24 0  0.88 0.24 0  0.9 0.24 0  0.92 0.24 0  0.9399999999999999 0.24 0  0.96 0.24 0  0.98 0.24 0  1 0.24 0  0 0.26 0  0.02 0.26 0  0.04 0.26 0  0.06 0.26 0  0.08 0.26 0  0.1 0.26 0  0.12 0.26 0  0.14 0.26 0  0.16 0.26 0  0.18 0.26 0  0.2 0.26 0  0.22 0.26 0  0.24 0.26 0  0.26 0.26 0  0.28 0.26 0  0.3 0.26 0  0.32 0.26 0  0.34 0.26 0  0.36 0.26 0  0.38 0.26 0  0.4 0.26 0  0.42 0.26 0  0.44 0.26 0  0.46 0.26 0  0.48 0.26 0  0.5 0.26 0  0.52 0.26 0  0.54 0.26 0  0.5600000000000001 0.26 0  0.58 0.26 0  0.6 0.26 0  0.62 0.26 0  0.64 0.26 0  0.66 0.26 0  0.68 0.26 0  0.7 0.26 0  0.72 0.26 0  0.74 0.26 0  0.76 0.26 0  0.78 0.26 0  0.8 0.26 0  0.82 0.26 0  0.84 0.26 0  0.86 0.26 0  0.88 0.26 0  0.9 0.26 0  0.92 0.26 0  0.9399999999999999 0.26 0  0.96 0.26 0  0.98 0.26 0  1 0.26 0  0 0.28 0  0.02 0.28 0  0.04 0.28 0  0.06 0.28 0  0.08 0.28 0  0.1 0.28 0  0.12 0.28 0  0.14 0.28 0  0.16 0.28 0  0.18 0.28 0  0.2 0.28 0  0.22 0.28 0  0.24 0.28 0  0.26 0.28 0  0.28 0.28 0  0.3 0.28 0  0.32 0.28 0  0.34 0.28 0  0.36 0.28 0  0.38 0.28 0  0.4 0.28 0  0.42 0.28 0  0.44 0.28 0  0.46 0.28 0  0.48 0.28 0  0.5 0.28 0  0.52 0.28 0  0.54 0.28 0  0.5600000000000001 0.28 0  0.58 0.28 0  0.6 0.28 0  0.62 0.28 0  0.64 0.28 0  0.66 0.28 0  0.68 0.28 0  0.7 0.28 0  0.72 0.28 0  0.74 0.28 0  0.76 0.28 0  0.78 0.28 0  0.8 0.28 0  0.82 0.28 0  0.84 0.28 0  0.86 0.28
[...]
<PointData  Vectors="f_68"> 
<DataArray  type="Float64"  Name="f_68"  NumberOfComponents="3" format="ascii">-1.4264080867630466e+00 8.8202421940400866e-05 0.0000000000000000e+00  -1.4229025336461563e+00 4.6070192618040650e-04 0.0000000000000000e+00  -1.4140503281650303e+00 5.1567876245562575e-04 0.0000000000000000e+00  -1.4004223125083617e+00 5.7006281630513566e-04 0.0000000000000000e+00  -1.3825822142093551e+00 6.1525873693765970e-04 0.0000000000000000e+00  -1.3610857435805379e+00 6.6255529614329218e-04 0.0000000000000000e+00  -1.3364536246126562e+00 7.1435319617242372e-04 0.0000000000000000e+00  -1.3091641085428962e+00 7.7174606892161139e-04 0.0000000000000000e+00  -1.2796549806408266e+00 8.3546775185983741e-04 0.0000000000000000e+00  -1.2483263372356679e+00 9.0607376999593525e-04 0.0000000000000000e+00  -1.2155437639064361e+00 9.8408078173306090e-04 0.0000000000000000e+00  -1.1816415152085700e+00 1.0700130255426781e-03 0.0000000000000000e+00  -1.1469255759165862e+00 1.1644292011760132e-03 0.0000000000000000e+00  -1.1116765745175903e+00 1.2679397245057755e-03 0.0000000000000000e+00  -1.0761525433433743e+00 1.3812198418043087e-03 0.0000000000000000e+00  -1.0405915324818078e+00 1.5050213712598870e-03 0.0000000000000000e+00  -1.0052140900023674e+00 1.6401844517252946e-03 0.0000000000000000e+00  -9.7022562381680377e-01 1.7876502129084641e-03 0.0000000000000000e+00  -9.3581866222296806e-01 1.9484750770636296e-03 0.0000000000000000e+00  -9.0217503156880752e-01 2.1238473600317257e-03 0.0000000000000000e+00  -8.6946797093554617e-01 2.3151068916228124e-03 0.0000000000000000e+00  -8.3786420554924845e-01 2.5237685010200007e-03 0.0000000000000000e+00  -8.0752600303018374e-01 2.7515504121769199e-03 0.0000000000000000e+00  -7.7861323983921882e-01 3.0004088783999326e-03 0.0000000000000000e+00  -7.5128550970346297e-01 3.2725807798330026e-03 0.0000000000000000e+00  -7.2570431182995310e-01 3.5706364526674043e-03 0.0000000000000000e+00  -7.0203536494394325e-01 3.8975457745342394e-03 0.0000000000000000e+00  -6.8045110446314250e-01 4.2567615871269083e-03 0.0000000000000000e+00  -6.6113343566606497e-01 4.6523260337166311e-03 0.0000000000000000e+00  -6.4427683732890828e-01 5.0890075356154604e-03 0.0000000000000000e+00  -6.3009194067532159e-01 5.5724792588954250e-03 0.0000000000000000e+00  -6.1880975167765362e-01 6.1095545556735980e-03 0.0000000000000000e+00  -6.1068674709791015e-01 6.7085018555912285e-03 0.0000000000000000e+00  -6.0601116603056793e-01 7.3794722540238833e-03 0.0000000000000000e+00  -6.0511095554591221e-01 8.1350900177482796e-03 0.0000000000000000e+00  -6.0836403661302574e-01 8.9912836724664290e-03 0.0000000000000000e+00  -6.1621188551720729e-01 9.9684810471751574e-03 0.0000000000000000e+00  -6.2917793489561047e-01 1.1093370014271554e-02 0.0000000000000000e+00  -6.4789321774542086e-01 1.2401568431826321e-02 0.0000000000000000e+00  -6.7313294100196985e-01 1.3941806760850162e-02 0.0000000000000000e+00  -7.0587118549304262e-01 1.5782749283798251e-02 0.0000000000000000e+00  -7.4736255383688299e-01 1.8024802020527492e-02 0.0000000000000000e+00  -7.9928256062124703e-01 2.0821315286900378e-02 0.0000000000000000e+00  -8.6392635961825381e-01 2.4422470710372110e-02 0.0000000000000000e+00  -9.4475889170929583e-01 2.9288635822580563e-02 0.0000000000000000e+00  -1.0465391751307596e+00 3.6263118251944781e-02 0.0000000000000000e+00  -1.1807898598565134e+00 4.8192335916225258e-02 0.0000000000000000e+00  -1.3547310924264029e+00 7.1894514283775274e-02 0.0000000000000000e+00  -1.6468827113656899e+00 1.3560720182913449e-01 0.0000000000000000e+00  -2.1393486972572910e+00 4.5885813705982448e-01 0.0000000000000000e+00  -2.9557898945208385e+00 1.3368795320540423e+00 0.0000000000000000e+00  -1.4255329143140272e+00 -1.6702500928715422e-05 0.0000000000000000e+00  -1.4226830157427459e+00 4.5797025537951504e-04 0.0000000000000000e+00  -1.4139176461222145e+00 7.9143226574323049e-04 0.0000000000000000e+00  -1.4003259028996318e+00 1.0564367766615476e-03 0.0000000000000000e+00  -1.3824881912370677e+00 1.2975170031946609e-03 0.0000000000000000e+00  -1.3609873293992660e+00 1.5393972202676488e-03 0.0000000000000000e+00  -1.3363477334018634e+00 1.7874746859562242e-03 0.0000000000000000e+00  -1.3090490497446969e+00 2.0460123111504377e-03 0.0000000000000000e+00  -1.2795295852783450e+00 2.3177852235207463e-03 0.0000000000000000e+00  -1.2481895929369207e+00 2.6051463883096878e-03 0.0000000000000000e+00  -1.2153946922782646e+00 2.9103046881319193e-03 0.0000000000000000e+00  -1.1814791067994976e+00 3.2354633760896720e-03 0.0000000000000000e+00  -1.1467487528074845e+00 3.5829032823418722e-03 0.0000000000000000e+00  -1.1114841642386659e+00 3.9550372578588946e-03 0.0000000000000000e+00  -1.0759432572716832e+00 4.3544536216559362e-03 0.0000000000000000e+00  -1.0403639454343934e+00 4.7839556344035535e-03 0.0000000000000000e+00  -1.0049666190653395e+00 5.2466011648063405e-03 0.0000000000000000e+00  -9.6995650504559250e-01 5.7457453007409747e-03 0.0000000000000000e+00  -9.3552592404937318e-01 6.2850881021182482e-03 0.0000000000000000e+00  -9.0185646374326778e-01 6.8687295978240599e-03 0.0000000000000000e+00  -8.6912108768552765e-01 7.5012343129718783e-03 0.0000000000000000e+00  -8.3748620136489338e-01 8.1877080229282636e-03 0.0000000000000000e+00  -8.0711369908656150e-01 8.9338900682921357e-03 0.0000000000000000e+00  -7.7816301850108927e-01 9.7462654723468496e-03 0.0000000000000000e+00  -7.5079323378005680e-01 1.0632202358959618e-02 0.0000000000000000e+00  -7.2516522417224305e-01 1.1600121901225112e-02 0.0000000000000000e+00  -7.0144396248289642e-01 1.2659710430743813e-02 0.0000000000000000e+00  -6.7980097868955525e-01 1.3822186690066561e-02 0.0000000000000000e+00  -6.6041706857020677e-01 1.5100641950810284e-02 0.0000000000000000e+00  -6.4348533751820081e-01 1.6510477510330229e-02 0.0000000000000000e+00  -6.2921469809087072e-01 1.8069973954242421e-02 0.0000000000000000e+00  -6.1783397995103251e-01 1.9801041168709552e-02 0.0000000000000000e+00  -6.0959686833734739e-01 2.1730220057588585e-02 0.0000000000000000e+00  -6.0478797077213065e-01 2.3890040657010482e-02 0.0000000000000000e+00  -6.0373043544170812e-01 2.6320894299597893e-02 0.0000000000000000e+00  -6.0679573082620786e-01 2.9073662680222497e-02 0.0000000000000000e+00  -6.1441648419827333e-01 3.2213487540686647e-02 0.0000000000000000e+00  -6.2710372490004385e-01 3.5825304978771920e-02 0.0000000000000000e+00  -6.4547062574047298e-01 4.0022192812301023e-02 0.0000000000000000e+00  -6.7026599003106713e-01 4.4958357983132885e-02 0.0000000000000000e+00  -7.0242308527116870e-01 5.0850105593455930e-02 0.0000000000000000e+00  -7.4313207536071701e-01 5.8011124179084737e-02 0.0000000000000000e+00  -7.9395527709871816e-01 6.6915060258567707e-02 0.0000000000000000e+00  -8.5700249317742550e-01 7.8314397243633385e-02 0.0000000000000000e+00  -9.3525570976411476e-01 9.3471368843878522e-02 0.0000000000000000e+00  -1.0330295896356716e+00 1.1470555878447125e-01 0.0000000000000000e+00  -1.1571841959513371e+00 1.4659657366987636e-01 0.0000000000000000e+00  -1.3157986477172914e+00 1.9819684946851154e-01 0.0000000000000000e+00  -1.5381205966416760e+00 2.9791316464532969e-01 0.0000000000000000e+00  -1.7379667087569519e+00 4.6982467246619330e-01 0.0000000000000000e+00  -2.2168283244450189e+00 8.6711613749871097e-01 0.0000000000000000e+00  -1.4249821463334855e+00 -5.9556952780637691e-07 0.0000000000000000e+00  -1.4222060964517969e+00 6.5616979188209284e-04 0.0000000000000000e+00  -1.4134608182397037e+00 1.2593772440458832e-03 0.0000000000000000e+00  -1.3999018961842749e+00 1.8402506797864445e-03 0.0000000000000000e+00  -1.3820672966768004e+00 2.4123857077180066e-03 0.0000000000000000e+00  -1.3605619218011462e+00 2.9874984570625227e-03 0.0000000000000000e+00  -1.3359103541262061e+00 3.5742791423453860e-03 0.0000000000000000e+00  -1.3085947814369607e+00 4.1803204680821203e-03 0.0000000000000000e+00  -1.2790542800595968e+00 4.8113660584566042e-03 0.0000000000000000e+00  -1.2476894495704347e+00 5.4726821366310793e-03 0.0000000000000000e+00  -1.2148659957799852e+00 6.1692985412298744e-03 0.0000000000000000e+00  -1.1809180757624331e+00 6.9062645252508763e-03 0.0000000000000000e+00  -1.1461514415073057e+00 7.6887950308229163e-03 0.0000000000000000e+00  -1.1108463876793326e+00 8.5223787529314539e-03 0.0000000000000000e+00  -1.0752605260595018e+00 9.4128682908767459e-03 0.0000000000000000e+00  -1.0396314026568045e+00 1.0366564094367042e-02 0.0000000000000000e+00  -1.0041789742833127e+00 1.1390299794860694e-02 0.0000000000000000e+00  -9.6910796173299696e-01 1.2491534140954235e-02 0.0000000000000000e+00  -9.3461009719245025e-01 1.3678453944789757e-02 0.0000000000000000e+00  -9.0086628419780568e-01 1.4960092356567986e-02 0.0000000000000000e+00  -8.6804868940534041e-01 1.6346467215471835e-02 0.0000000000000000e+00  -8.3632278679349448e-01 1.7848745096282821e-02 0.0000000000000000e+00  -8.0584937680390722e-01 1.9479437995564113e-02 0.0000000000000000e+00  -7.7678660554680279e-01 2.1252641471272607e-02 0.0000000000000000e+00  -7.4929201277519797e-01 2.3184325624767032e-02 0.0000000000000000e+00  -7.2352464219672730e-01 2.5292693848975489e-02 0.0000000000000000e+00  -6.9964725427669949e-01 2.7598629136430797e-02 0.0000000000000000e+00  -6.7782869060098228e-01 3.0126254510356994e-02 0.0000000000000000e+00  -6.5824645096427425e-01 3.2903643652061422e-02 0.0000000000000000e+00  -6.4108956084452939e-01 3.5963731327891470e-02 0.0000000000000000e+00  -6.2656182955888540e-01 3.9345492736954500e-02 0.0000000000000000e+00  -6.1488563069777014e-01 4.3095489489017653e-02 0.0000000000000000e+00  -6.0630638011638649e-01 4.7269922496610904e-02 0.0000000000000000e+00  -6.0109794826386698e-01 5.1937396628989253e-02 0.0000000000000000e+00  -5.9956933127239997e-01 5.7182701836659008e-02 0.0000000000000000e+00  -6.0207303058482253e-01 6.3112073281985134e-02 0.0000000000000000e+00  -6.0901577466698154e-01 6.9860648420782726e-02 0.0000000000000000e+00  -6.2087247573884929e-01 7.7603263075775530e-02 0.0000000000000000e+00  -6.3820472462225486e-01 8.6570452833124437e-02 0.0000000000000000e+00  -6.6168559037448349e-01 9.7072801756592622e-02 0.0000000000000000e+00  -6.9213361626406600e-01 1.0953909874847986e-01 0.0000000000000000e+00  -7.3055838629724790e-01 1.2457810698581789e-01 0.0000000000000000e+00  -7.7822661761927081e-01 1.4308236552565179e-01 0.0000000000000000e+00  -8.3673178508744939e-01 1.6640826936629458e-01 0.0000000000000000e+00  -9.0814292296469845e-01 1.9670496534783996e-01 0.0000000000000000e+00  -9.9485162443229058e-01 2.3752290048664590e-01 0.0000000000000000e+00  -1.1002241126488874e+00 2.9491263614841595e-01 0.0000000000000000e+00  -1.2246114729945432e+00 3.7989798632588190e-01 0.0000000000000000e+00  -1.3725172723858603e+00 5.1018856180397376e-01 0.0000000000000000e+00  -1.4939426050320430e+00 7.1357795276075009e-01 0.0000000000000000e+00  -1.6921969391846063e+00 1.0508167799811527e+00 0.0000000000000000e+00  -1.4241484707878753e+00 -4.1319290615986054e-07 0.0000000000000000e+00  -1.4214526213795768e+00 8.7562512436068038e-04 0.0000000000000000e+00  -1.4127355421547581e+00 1.7363457934073221e-03 0.0000000000000000e+00  -1.3991944283032505e+00 2.5880026386971371e-03 0.0000000000000000e+00  -1.3813573387113878e+00 3.4377077794727857e-03 0.0000000000000000e+00  -1.3598409172475330e+00 4.2978239348140110e-03 0.0000000000000000e+00  -1.3351688962179318e+00 5.1782345687885114e-03 0.0000000000000000e+00  -1.3078258983133966e+00 6.0874344648938865e-03 0.0000000000000000e+00  -1.2782514639965050e+00 7.0330655273856098e-03 0.0000000000000000e+00  -1.2468465313041814e+00 8.0225109794077511e-03 0.0000000000000000e+00  -1.2139768226935654e+00 9.0630479082158509e-03 0.0000000000000000e+00  -1.1799763378976396e+00 1.0162096939173264e-02 0.0000000000000000e+00  -1.1451505381971692e+00 1.1327369642530607e-02 0.0000000000000000e+00  -1.1097793175390518e+00 1.2567000648048558e-02 0.0000000000000000e+00  -1.0741197863849605e+00 1.3889665279731248e-02 0.0000000000000000e+00  -1.0384088890339802e+00 1.5304694978376068e-02 0.0000000000000000e+00  -1.0028658741382470e+00 1.6822197699427027e-02 0.0000000000000000e+00  -9.6769463662376554e-01 1.8453189243170430e-02 0.0000000000000000e+00  -9.3308594891795171e-01 2.0209741050134067e-02 0.0000000000000000e+00  -8.9921959945882646e-01 2.2105150194068564e-02 0.0000000000000000e+00  -8.6626645692009807e-01 2.4154138063842239e-02 0.0000000000000000e+00  -8.3439047944586608e-01 2.6373085503812621e-02 0.0000000000000000e+00  -8.0375068951374851e-01 2.8780314040830167e-02 0.0000000000000000e+00  -7.7450313694636674e-01 3.1396425399779257e-02 0.0000000000000000e+00  -7.4680287521714595e-01 3.4244715017850633e-02 0.0000000000000000e+00  -7.2080597975013649e-01 3.7351680041396385e-02 0.0000000000000000e+00  -6.9667164166162465e-01 4.0747648813527750e-02 0.0000000000000000e+00  -6.7456437668861779e-01 4.4467567850341602e-02 0.0000000000000000e+00  -6.5465639736263426e-01 4.8551994810800039e-02 0.0000000000000000e+00  -6.3713020742992665e-01 5.3048363564371787e-02 0.0000000000000000e+00  -6.2218149188469829e-01 5.8012612530460299e-02 0.0000000000000000e+00  -6.1002239476800413e-01 6.3511303652397835e-02 0.0000000000000000e+00  -6.0088530130044626e-01 6.9624412355677248e-02 0.0000000000000000e+00  -5.9502727221945029e-01 7.6449047605084336e-02 0.0000000000000000e+00  -5.9273531754229192e-01 8.4104480148590871e-02 0.0000000000000000e+00  -5.9433274362151745e-01 9.2739039791507674e-02 0.0000000000000000e+00  -6.0018685944060046e-01 1.0253972822304799e-01 0.0000000000000000e+00  -6.1071836429505255e-01 1.1374584842413719e-01 0.0000000000000000e+00  -6.2641275295183940e-01 1.2666868759983094e-01 0.0000000000000000e+00  -6.4783385444668029e-01 1.4172050015309418e-01 0.0000000000000000e+00  -6.7563939561639252e-01 1.5945805016993603e-01 0.0000000000000000e+00  -7.1059592733621124e-01 1.8064933826773805e-01 0.0000000000000000e+00  -7.5359106984928170e-01 2.0637763360216105e-01 0.0000000000000000e+00  -8.0561507635379659e-01 2.3820570710439734e-01 0.0000000000000000e+00  -8.6772841641842513e-01 2.7843532434547663e-01 0.0000000000000000e+00  -9.4070764862749767e-01 3.3049826978437752e-01 0.0000000000000000e+00  -1.0250875570864886e+00 3.9954481993050539e-01 0.0000000000000000e+00  -1.1172614819578401e+00 4.9287780172848206e-01 0.0000000000000000e+00  -1.2174038119986841e+00 6.2004512590592809e-01 0.0000000000000000e+00  -1.2802282362658073e+00 7.9034934003220425e-01 0.0000000000000000e+00  -1.3964182601231980e+00 9.9062972542489369e-01 0.0000000000000000e+00  -1.4230821757655476e+00 -1.4852845431376024e-07 0.0000000000000000e+00  -1.4204805253560435e+00 1.1182150158861911e-03 0.0000000000000000e+00  -1.4117483880992765e+00 2.2340842475314752e-03 0.0000000000000000e+00  -1.3982086195696199e+00 3.3521040512077879e-03 0.0000000000000000e+00  -1.3803606393630343e+00 4.4802455469951079e-03 0.0000000000000000e+00  -1.3588244013322786e+00 5.6284275882136723e-03 0.0000000000000000e+00  -1.3341228183330749e+00 6.8060740367737391e-03 0.0000000000000000e+00  -1.3067416750540661e+00 8.0227740133342589e-03 0.0000000000000000e+00  -1.2771206132702166e+00 9.2879140664740949e-03 0.0000000000000000e+00  -1.2456607277839711e+00 1.0610824161952833e-02 0.0000000000000000e+00  -1.2127276013247388e+00 1.2000943159500637e-02 0.0000000000000000e+00  -1.1786549444992844e+00 1.3468006626764150e-02 0.0000000000000000e+00  -1.1437477812064341e+00 1.5022190527007109e-02 0.0000000000000000e+00  -1.1082854373125641e+00 1.6674255820755816e-02 0.0000000000000000e+00  -1.0725243275525547e+00 1.8435685858114673e-02 0.0000000000000000e+00  -1.0367005688473909e+00 2.0318827947039382e-02 0.0000000000000000e+00  -1.0010324404789406e+00 2.2337044443028770e-02 0.0000000000000000e+00  -9.6572270981474451e-01 2.4504879487000281e-02 0.0000000000000000e+00  -9.3096084137157320e-01 2.6838247476181402e-02 0.0000000000000000e+00  -8.9692510651786594e-01 2.9354649970681452e-02 0.0000000000000000e+00  -8.6378461106508253e-01 3.2073428831136709e-02 0.0000000000000000e+00  -8.3170125829059816e-01 3.5016065009574035e-02 0.0000000000000000e+00  -8.0083166558113084e-01 3.8206534685176860e-02 0.0000000000000000e+00  -7.7132905391288586e-01 4.1671737513507189e-02 0.0000000000000000e+00  -7.4334513084907128e-01 4.5442015897164567e-02 0.0000000000000000e+00  -7.1703198970287474e-01 4.9551789752828514e-02 0.0000000000000000e+00  -6.9254405006236852e-01 5.4040338771737063e-02 0.0000000000000000e+00  -6.7004006807609806e-01 5.8952774404667591e-02 0.0000000000000000e+00  -6.4968524880266554e-01 6.4341257843051211e-02 0.0000000000000000e+00  -6.3165349751140620e-01 7.0266539711793558e-02 0.0000000000000000e+00  -6.1612985189963232e-01 7.6799924383514115e-02 0.0000000000000000e+00  -6.0331314224122135e-01 8.4025800255289426e-02 0.0000000000000000e+00  -5.9341893030985249e-01 9.2044932221461664e-02 0.0000000000000000e+00  -5.8668277795970736e-01 1.0097879182160439e-01 0.0000000000000000e+00  -5.8336388749238122e-01 1.1097531614002668e-01 0.0000000000000000e+00  -5.8374912763863285e-01 1.2221665677916370e-01 0.0000000000000000e+00  -5.8815739295228764e-01 1.3492973295941788e-01 0.0000000000000000e+00  -5.9694409316615182e-01 1.4940077979908148e-01 0.0000000000000000e+00  -6.1050528360492662e-01 1.6599564493120306e-01 0.0000000000000000e+00  -6.2928025822095457e-01 1.8518841541138886e-01 0.0000000000000000e+00  -6.5375046804507397e-01 2.0760214533351629e-01 0.0000000000000000e+00  -6.8442906714990925e-01 2.3406702833606854e-01 0.0000000000000000e+00  -7.2183478624088115e-01 2.6570313066889722e-01 0.0000000000000000e+00  -7.6641769805642868e-01 3.0403553092516927e-01 0.0000000000000000e+00  -8.1845191197593936e-01 3.5114573780006253e-01 0.0000000000000000e+00  -8.7762544254538144e-01 4.0984609154046026e-01 0.0000000000000000e+00  -9.4301087679301820e-01 4.8379911049571572e-01 0.0000000000000000e+00  -1.0101238805256432e+00 5.7735306300202627e-01 0.0000000000000000e+00  -1.0777599137395182e+00 6.9479084110937928e-01 0.0000000000000000e+00  -1.1130467025768507e+00 8.3636098595536412e-01 0.0000000000000000e+00  -1.1937700733087229e+00 9.9971723254962552e-01 0.0000000000000000e+00  -1.4217707438386891e+00 1.1782952586677987e-07 0.0000000000000000e+00  -1.4192573130856250e+00 1.3646683232591162e-03 0.0000000000000000e+00  -1.4104980428108771e+00 2.7331060353953931e-03 0.0000000000000000e+00  -1.3969551105522406e+00 4.1118125775991363e-03 0.0000000000000000e+00  -1.3790869149970384e+00 5.5091335174405863e-03 0.0000000000000000e+00  -1.3575217552632264e+00 6.9348591288858914e-03 0.0000000000000000e+00  -1.3327808380533506e+00 8.3994331863894382e-03 0.0000000000000000e+00  -1.3053503100690562e+00 9.9136272799506750e-03 0.0000000000000000e+00  -1.2756696819553615e+00 1.1488303600877610e-02 0.0000000000000000e+00  -1.2441399406860700e+00 1.3134553290305559e-02 0.0000000000000000e+00  -1.2111263506306200e+00 1.4863797134485211e-02 0.0000000000000000e+00  -1.1769621766727598e+00 1.6687919166867019e-02 0.0000000000000000e+00  -1.1419518464591272e+00 1.8619405473044567e-02 0.0000000000000000e+00  -1.1063739476941752e+00 2.0671490665574214e-02 0.0000000000000000e+00  -1.0704840093981411e+00 2.2858308262654923e-02 0.0000000000000000e+00  -1.0345171061060057e+00 2.5195051749948030e-02 0.0000000000000000e+00  -9.9869030296839745e-01 2.7698150082725571e-02 0.0000000000000000e+00  -9.6320496055254645e-01 3.0385463397088783e-02 0.0000000000000000e+00  -9.2824891648024432e-01 3.3276505047516329e-02 0.0000000000000000e+00  -8.9399856019282797e-01 3.6392697152259679e-02 0.0000000000000000e+00  -8.6062081660912559e-01 3.9757668190340947e-02 0.0000000000000000e+00  -8.2827505416171920e-01 4.3397603067263597e-02 0.0000000000000000e+00  -7.9711493262330402e-01 4.7341658571863288e-02 0.0000000000000000e+00  -7.6729020623086397e-01 5.1622460468912702e-02 0.0000000000000000e+00  -7.3894849784127337e-01 5.6276702866691022e-02 0.0000000000000000e+00  -7.12237