<?xml version="1.0"?>
<VTKFile type="UnstructuredGrid"  version="0.1"  >
<UnstructuredGrid>
<Piece  NumberOfPoints="2601" NumberOfCells="5000">
<Points>
<DataArray  type="Float64"  NumberOfComponents="3"  format="ascii">0 0 0  0.02 0 0  0.04 0 0  0.06 0 0  0.08 0 0  0.1 0 0  0.12 0 0  0.14 0 0  0.16 0 0  0.18 0 0  0.2 0 0  0.22 0 0  0.24 0 0  0.26 0 0  0.28 0 0  0.3 0 0  0.32 0 0  0.34 0 0  0.36 0 0  0.38 0 0  0.4 0 0  0.42 0 0  0.44 0 0  0.46 0 0  0.48 0 0  0.5 0 0  0.52 0 0  0.54 0 0  0.5600000000000001 0 0  0.58 0 0  0.6 0 0  0.62 0 0  0.64 0 0  0.66 0 0  0.68 0 0  0.7 0 0  0.72 0 0  0.74 0 0  0.76 0 0  0.78 0 0  0.8 0 0  0.82 0 0  0.84 0 0  0.86 0 0  0.88 0 0  0.9 0 0  0.92 0 0  0.9399999999999999 0 0  0.96 0 0  0.98 0 0  1 0 0  0 0.02 0  0.02 0.02 0  0.04 0.02 0  0.06 0.02 0  0.08 0.02 0  0.1 0.02 0  0.12 0.02 0  0.14 0.02 0  0.16 0.02 0  0.18 0.02 0  0.2 0.02 0  0.22 0.02 0  0.24 0.02 0  0.26 0.02 0  0.28 0.02 0  0.3 0.02 0  0.32 0.02 0  0.34 0.02 0  0.36 0.02 0  0.38 0.02 0  0.4 0.02 0  0.42 0.02 0  0.44 0.02 0  0.46 0.02 0  0.48 0.02 0  0.5 0.02 0  0.52 0.02 0  0.54 0.02 0  0.5600000000000001 0.02 0  0.58 0.02 0  0.6 0.02 0  0.62 0.02 0  0.64 0.02 0  0.66 0.02 0  0.68 0.02 0  0.7 0.02 0  0.72 0.02 0  0.74 0.02 0  0.76 0.02 0  0.78 0.02 0  0.8 0.02 0  0.82 0.02 0  0.84 0.02 0  0.86 0.02 0  0.88 0.02 0  0.9 0.02 0  0.92 0.02 0  0.9399999999999999 0.02 0  0.96 0.02 0  0.98 0.02 0  1 0.02 0  0 0.04 0  0.02 0.04 0  0.04 0.04 0  0.06 0.04 0  0.08 0.04 0  0.1 0.04 0  0.12 0.04 0  0.14 0.04 0  0.16 0.04 0  0.18 0.04 0  0.2 0.04 0  0.22 0.04 0  0.24 0.04 0  0.26 0.04 0  0.28 0.04 0  0.3 0.04 0  0.32 0.04 0  0.34 0.04 0  0.36 0.04 0  0.38 0.04 0  0.4 0.04 0  0.42 0.04 0  0.44 0.04 0  0.46 0.04 0  0.48 0.04 0  0.5 0.04 0  0.52 0.04 0  0.54 0.04 0  0.5600000000000001 0.04 0  0.58 0.04 0  0.6 0.04 0  0.62 0.04 0  0.64 0.04 0  0.66 0.04 0  0.68 0.04 0  0.7 0.04 0  0.72 0.04 0  0.74 0.04 0  0.76 0.04 0  0.78 0.04 0  0.8 0.04 0  0.82 0.04 0  0.84 0.04 0  0.86 0.04 0  0.88 0.04 0  0.9 0.04 0  0.92 0.04 0  0.9399999999999999 0.04 0  0.96 0.04 0  0.98 0.04 0  1 0.04 0  0 0.06 0  0.02 0.06 0  0.04 0.06 0  0.06 0.06 0  0.08 0.06 0  0.1 0.06 0  0.12 0.06 0  0.14 0.06 0  0.16 0.06 0  0.18 0.06 0  0.2 0.06 0  0.22 0.06 0  0.24 0.06 0  0.26 0.06 0  0.28 0.06 0  0.3 0.06 0  0.32 0.06 0  0.34 0.06 0  0.36 0.06 0  0.38 0.06 0  0.4 0.06 0  0.42 0.06 0  0.44 0.06 0  0.46 0.06 0  0.48 0.06 0  0.5 0.06 0  0.52 0.06 0  0.54 0.06 0  0.5600000000000001 0.06 0  0.58 0.06 0  0.6 0.06 0  0.62 0.06 0  0.64 0.06 0  0.66 0.06 0  0.68 0.06 0  0.7 0.06 0  0.72 0.06 0  0.74 0.06 0  0.76 0.06 0  0.78 0.06 0  0.8 0.06 0  0.82 0.06 0  0.84 0.06 0  0.86 0.06 0  0.88 0.06 0  0.9 0.06 0  0.92 0.06 0  0.9399999999999999 0.06 0  0.96 0.06 0  0.98 0.06 0  1 0.06 0  0 0.08 0  0.02 0.08 0  0.04 0.08 0  0.06 0.08 0  0.08 0.08 0  0.1 0.08 0  0.12 0.08 0  0.14 0.08 0  0.16 0.08 0  0.18 0.08 0  0.2 0.08 0  0.22 0.08 0  0.24 0.08 0  0.26 0.08 0  0.28 0.08 0  0.3 0.08 0  0.32 0.08 0  0.34 0.08 0  0.36 0.08 0  0.38 0.08 0  0.4 0.08 0  0.42 0.08 0  0.44 0.08 0  0.46 0.08 0  0.48 0.08 0  0.5 0.08 0  0.52 0.08 0  0.54 0.08 0  0.5600000000000001 0.08 0  0.58 0.08 0  0.6 0.08 0  0.62 0.08 0  0.64 0.08 0  0.66 0.08 0  0.68 0.08 0  0.7 0.08 0  0.72 0.08 0  0.74 0.08 0  0.76 0.08 0  0.78 0.08 0  0.8 0.08 0  0.82 0.08 0  0.84 0.08 0  0.86 0.08 0  0.88 0.08 0  0.9 0.08 0  0.92 0.08 0  0.9399999999999999 0.08 0  0.96 0.08 0  0.98 0.08 0  1 0.08 0  0 0.1 0  0.02 0.1 0  0.04 0.1 0  0.06 0.1 0  0.08 0.1 0  0.1 0.1 0  0.12 0.1 0  0.14 0.1 0  0.16 0.1 0  0.18 0.1 0  0.2 0.1 0  0.22 0.1 0  0.24 0.1 0  0.26 0.1 0  0.28 0.1 0  0.3 0.1 0  0.32 0.1 0  0.34 0.1 0  0.36 0.1 0  0.38 0.1 0  0.4 0.1 0  0.42 0.1 0  0.44 0.1 0  0.46 0.1 0  0.48 0.1 0  0.5 0.1 0  0.52 0.1 0  0.54 0.1 0  0.5600000000000001 0.1 0  0.58 0.1 0  0.6 0.1 0  0.62 0.1 0  0.64 0.1 0  0.66 0.1 0  0.68 0.1 0  0.7 0.1 0  0.72 0.1 0  0.74 0.1 0  0.76 0.1 0  0.78 0.1 0  0.8 0.1 0  0.82 0.1 0  0.84 0.1 0  0.86 0.1 0  0.88 0.1 0  0.9 0.1 0  0.92 0.1 0  0.9399999999999999 0.1 0  0.96 0.1 0  0.98 0.1 0  1 0.1 0  0 0.12 0  0.02 0.12 0  0.04 0.12 0  0.06 0.12 0  0.08 0.12 0  0.1 0.12 0  0.12 0.12 0  0.14 0.12 0  0.16 0.12 0  0.18 0.12 0  0.2 0.12 0  0.22 0.12 0  0.24 0.12 0  0.26 0.12 0  0.28 0.12 0  0.3 0.12 0  0.32 0.12 0  0.34 0.12 0  0.36 0.12 0  0.38 0.12 0  0.4 0.12 0  0.42 0.12 0  0.44 0.12 0  0.46 0.12 0  0.48 0.12 0  0.5 0.12 0  0.52 0.12 0  0.54 0.12 0  0.5600000000000001 0.12 0  0.58 0.12 0  0.6 0.12 0  0.62 0.12 0  0.64 0.12 0  0.66 0.12 0  0.68 0.12 0  0.7 0.12 0  0.72 0.12 0  0.74 0.12 0  0.76 0.12 0  0.78 0.12 0  0.8 0.12 0  0.82 0.12 0  0.84 0.12 0  0.86 0.12 0  0.88 0.12 0  0.9 0.12 0  0.92 0.12 0  0.9399999999999999 0.12 0  0.96 0.12 0  0.98 0.12 0  1 0.12 0  0 0.14 0  0.02 0.14 0  0.04 0.14 0  0.06 0.14 0  0.08 0.14 0  0.1 0.14 0  0.12 0.14 0  0.14 0.14 0  0.16 0.14 0  0.18 0.14 0  0.2 0.14 0  0.22 0.14 0  0.24 0.14 0  0.26 0.14 0  0.28 0.14 0  0.3 0.14 0  0.32 0.14 0  0.34 0.14 0  0.36 0.14 0  0.38 0.14 0  0.4 0.14 0  0.42 0.14 0  0.44 0.14 0  0.46 0.14 0  0.48 0.14 0  0.5 0.14 0  0.52 0.14 0  0.54 0.14 0  0.5600000000000001 0.14 0  0.58 0.14 0  0.6 0.14 0  0.62 0.14 0  0.64 0.14 0  0.66 0.14 0  0.68 0.14 0  0.7 0.14 0  0.72 0.14 0  0.74 0.14 0  0.76 0.14 0  0.78 0.14 0  0.8 0.14 0  0.82 0.14 0  0.84 0.14 0  0.86 0.14 0  0.88 0.14 0  0.9 0.14 0  0.92 0.14 0  0.9399999999999999 0.14 0  0.96 0.14 0  0.98 0.14 0  1 0.14 0  0 0.16 0  0.02 0.16 0  0.04 0.16 0  0.06 0.16 0  0.08 0.16 0  0.1 0.16 0  0.12 0.16 0  0.14 0.16 0  0.16 0.16 0  0.18 0.16 0  0.2 0.16 0  0.22 0.16 0  0.24 0.16 0  0.26 0.16 0  0.28 0.16 0  0.3 0.16 0  0.32 0.16 0  0.34 0.16 0  0.36 0.16 0  0.38 0.16 0  0.4 0.16 0  0.42 0.16 0  0.44 0.16 0  0.46 0.16 0  0.48 0.16 0  0.5 0.16 0  0.52 0.16 0  0.54 0.16 0  0.5600000000000001 0.16 0  0.58 0.16 0  0.6 0.16 0  0.62 0.16 0  0.64 0.16 0  0.66 0.16 0  0.68 0.16 0  0.7 0.16 0  0.72 0.16 0  0.74 0.16 0  0.76 0.16 0  0.78 0.16 0  0.8 0.16 0  0.82 0.16 0  0.84 0.16 0  0.86 0.16 0  0.88 0.16 0  0.9 0.16 0  0.92 0.16 0  0.9399999999999999 0.16 0  0.96 0.16 0  0.98 0.16 0  1 0.16 0  0 0.18 0  0.02 0.18 0  0.04 0.18 0  0.06 0.18 0  0.08 0.18 0  0.1 0.18 0  0.12 0.18 0  0.14 0.18 0  0.16 0.18 0  0.18 0.18 0  0.2 0.18 0  0.22 0.18 0  0.24 0.18 0  0.26 0.18 0  0.28 0.18 0  0.3 0.18 0  0.32 0.18 0  0.34 0.18 0  0.36 0.18 0  0.38 0.18 0  0.4 0.18 0  0.42 0.18 0  0.44 0.18 0  0.46 0.18 0  0.48 0.18 0  0.5 0.18 0  0.52 0.18 0  0.54 0.18 0  0.5600000000000001 0.18 0  0.58 0.18 0  0.6 0.18 0  0.62 0.18 0  0.64 0.18 0  0.66 0.18 0  0.68 0.18 0  0.7 0.18 0  0.72 0.18 0  0.74 0.18 0  0.76 0.18 0  0.78 0.18 0  0.8 0.18 0  0.82 0.18 0  0.84 0.18 0  0.86 0.18 0  0.88 0.18 0  0.9 0.18 0  0.92 0.18 0  0.9399999999999999 0.18 0  0.96 0.18 0  0.98 0.18 0  1 0.18 0  0 0.2 0  0.02 0.2 0  0.04 0.2 0  0.06 0.2 0  0.08 0.2 0  0.1 0.2 0  0.12 0.2 0  0.14 0.2 0  0.16 0.2 0  0.18 0.2 0  0.2 0.2 0  0.22 0.2 0  0.24 0.2 0  0.26 0.2 0  0.28 0.2 0  0.3 0.2 0  0.32 0.2 0  0.34 0.2 0  0.36 0.2 0  0.38 0.2 0  0.4 0.2 0  0.42 0.2 0  0.44 0.2 0  0.46 0.2 0  0.48 0.2 0  0.5 0.2 0  0.52 0.2 0  0.54 0.2 0  0.5600000000000001 0.2 0  0.58 0.2 0  0.6 0.2 0  0.62 0.2 0  0.64 0.2 0  0.66 0.2 0  0.68 0.2 0  0.7 0.2 0  0.72 0.2 0  0.74 0.2 0  0.76 0.2 0  0.78 0.2 0  0.8 0.2 0  0.82 0.2 0  0.84 0.2 0  0.86 0.2 0  0.88 0.2 0  0.9 0.2 0  0.92 0.2 0  0.9399999999999999 0.2 0  0.96 0.2 0  0.98 0.2 0  1 0.2 0  0 0.22 0  0.02 0.22 0  0.04 0.22 0  0.06 0.22 0  0.08 0.22 0  0.1 0.22 0  0.12 0.22 0  0.14 0.22 0  0.16 0.22 0  0.18 0.22 0  0.2 0.22 0  0.22 0.22 0  0.24 0.22 0  0.26 0.22 0  0.28 0.22 0  0.3 0.22 0  0.32 0.22 0  0.34 0.22 0  0.36 0.22 0  0.38 0.22 0  0.4 0.22 0  0.42 0.22 0  0.44 0.22 0  0.46 0.22 0  0.48 0.22 0  0.5 0.22 0  0.52 0.22 0  0.54 0.22 0  0.5600000000000001 0.22 0  0.58 0.22 0  0.6 0.22 0  0.62 0.22 0  0.64 0.22 0  0.66 0.22 0  0.68 0.22 0  0.7 0.22 0  0.72 0.22 0  0.74 0.22 0  0.76 0.22 0  0.78 0.22 0  0.8 0.22 0  0.82 0.22 0  0.84 0.22 0  0.86 0.22 0  0.88 0.22 0  0.9 0.22 0  0.92 0.22 0  0.9399999999999999 0.22 0  0.96 0.22 0  0.98 0.22 0  1 0.22 0  0 0.24 0  0.02 0.24 0  0.04 0.24 0  0.06 0.24 0  0.08 0.24 0  0.1 0.24 0  0.12 0.24 0  0.14 0.24 0  0.16 0.24 0  0.18 0.24 0  0.2 0.24 0  0.22 0.24 0  0.24 0.24 0  0.26 0.24 0  0.28 0.24 0  0.3 0.24 0  0.32 0.24 0  0.34 0.24 0  0.36 0.24 0  0.38 0.24 0  0.4 0.24 0  0.42 0.24 0  0.44 0.24 0  0.46 0.24 0  0.48 0.24 0  0.5 0.24 0  0.52 0.24 0  0.54 0.24 0  0.5600000000000001 0.24 0  0.58 0.24 0  0.6 0.24 0  0.62 0.24 0  0.64 0.24 0  0.66 0.24 0  0.68 0.24 0  0.7 0.24 0  0.72 0.24 0  0.74 0.24 0  0.76 0.24 0  0.78 0.24 0  0.8 0.24 0  0.82 0.24 0  0.84 0.24 0  0.86 0.24 0  0.88 0.24 0  0.9 0.24 0  0.92 0.24 0  0.9399999999999999 0.24 0  0.96 0.24 0  0.98 0.24 0  1 0.24 0  0 0.26 0  0.02 0.26 0  0.04 0.26 0  0.06 0.26 0  0.08 0.26 0  0.1 0.26 0  0.12 0.26 0  0.14 0.26 0  0.16 0.26 0  0.18 0.26 0  0.2 0.26 0  0.22 0.26 0  0.24 0.26 0  0.26 0.26 0  0.28 0.26 0  0.3 0.26 0  0.32 0.26 0  0.34 0.26 0  0.36 0.26 0  0.38 0.26 0  0.4 0.26 0  0.42 0.26 0  0.44 0.26 0  0.46 0.26 0  0.48 0.26 0  0.5 0.26 0  0.52 0.26 0  0.54 0.26 0  0.5600000000000001 0.26 0  0.58 0.26 0  0.6 0.26 0  0.62 0.26 0  0.64 0.26 0  0.66 0.26 0  0.68 0.26 0  0.7 0.26 0  0.72 0.26 0  0.74 0.26 0  0.76 0.26 0  0.78 0.26 0  0.8 0.26 0  0.82 0.26 0  0.84 0.26 0  0.86 0.26 0  0.88 0.26 0  0.9 0.26 0  0.92 0.26 0  0.9399999999999999 0.26 0  0.96 0.26 0  0.98 0.26 0  1 0.26 0  0 0.28 0  0.02 0.28 0  0.04 0.28 0  0.06 0.28 0  0.08 0.28 0  0.1 0.28 0  0.12 0.28 0  0.14 0.28 0  0.16 0.28 0  0.18 0.28 0  0.2 0.28 0  0.22 0.28 0  0.24 0.28 0  0.26 0.28 0  0.28 0.28 0  0.3 0.28 0  0.32 0.28 0  0.34 0.28 0  0.36 0.28 0  0.38 0.28 0  0.4 0.28 0  0.42 0.28 0  0.44 0.28 0  0.46 0.28 0  0.48 0.28 0  0.5 0.28 0  0.52 0.28 0  0.54 0.28 0  0.5600000000000001 0.28 0  0.58 0.28 0  0.6 0.28 0  0.62 0.28 0  0.64 0.28 0  0.66 0.28 0  0.68 0.28 0  0.7 0.28 0  0.72 0.28 0  0.74 0.28 0  0.76 0.28 0  0.78 0.28 0  0.8 0.28 0  0.82 0.28 0  0.84 0.28 0  0.86 0.28
[...]
<PointData  Vectors="f_328"> 
<DataArray  type="Float64"  Name="f_328"  NumberOfComponents="3" format="ascii">-5.6015360931031410e-01 -2.4095296924830865e-05 0.0000000000000000e+00  -5.6036824516247852e-01 1.0794049712800577e-04 0.0000000000000000e+00  -5.6088645004037629e-01 2.0912616845068869e-04 0.0000000000000000e+00  -5.6178018687625908e-01 3.1414788556830822e-04 0.0000000000000000e+00  -5.6307196165885298e-01 4.2055128528717596e-04 0.0000000000000000e+00  -5.6478572611156563e-01 5.2879452027583377e-04 0.0000000000000000e+00  -5.6694835383618447e-01 6.3950066605243715e-04 0.0000000000000000e+00  -5.6958827749038377e-01 7.5318498753419467e-04 0.0000000000000000e+00  -5.7273579102010175e-01 8.7040761818020789e-04 0.0000000000000000e+00  -5.7642309999192265e-01 9.9175182816357344e-04 0.0000000000000000e+00  -5.8068440791570786e-01 1.1178316988529806e-03 0.0000000000000000e+00  -5.8555602411655838e-01 1.2492976288311357e-03 0.0000000000000000e+00  -5.9107648932729029e-01 1.3868420414663762e-03 0.0000000000000000e+00  -5.9728672286522599e-01 1.5312059603082608e-03 0.0000000000000000e+00  -6.0423019390872956e-01 1.6831864565430437e-03 0.0000000000000000e+00  -6.1195312036994987e-01 1.8436452166615005e-03 0.0000000000000000e+00  -6.2050469964741761e-01 2.0135184816003739e-03 0.0000000000000000e+00  -6.2993737650714099e-01 2.1938286701895758e-03 0.0000000000000000e+00  -6.4030715453807774e-01 2.3856980738877600e-03 0.0000000000000000e+00  -6.5167395912174808e-01 2.5903651102197902e-03 0.0000000000000000e+00  -6.6410206173898445e-01 2.8092037507863421e-03 0.0000000000000000e+00  -6.7766057782752620e-01 3.0437469100800725e-03 0.0000000000000000e+00  -6.9242405346652203e-01 3.2957148063012232e-03 0.0000000000000000e+00  -7.0847316011636596e-01 3.5670496064419271e-03 0.0000000000000000e+00  -7.2589552179077710e-01 3.8599580726665951e-03 0.0000000000000000e+00  -7.4478670580227158e-01 4.1769644801373405e-03 0.0000000000000000e+00  -7.6525141720196266e-01 4.5209768372327479e-03 0.0000000000000000e+00  -7.8740494907777980e-01 4.8953705005866672e-03 0.0000000000000000e+00  -8.1137495721567865e-01 5.3040947776977617e-03 0.0000000000000000e+00  -8.3730365007331142e-01 5.7518102603660356e-03 0.0000000000000000e+00  -8.6535051626377602e-01 6.2440677632843271e-03 0.0000000000000000e+00  -8.9569575588716688e-01 6.7875443793306376e-03 0.0000000000000000e+00  -9.2854464542805482e-01 7.3903591588110572e-03 0.0000000000000000e+00  -9.6413315847522585e-01 8.0625016960288298e-03 0.0000000000000000e+00  -1.0027353026091617e+00 8.8164238861846347e-03 0.0000000000000000e+00  -1.0446728420683433e+00 9.6678725649052139e-03 0.0000000000000000e+00  -1.0903284059075458e+00 1.0637086459137459e-02 0.0000000000000000e+00  -1.1401634949208062e+00 1.1750559246017098e-02 0.0000000000000000e+00  -1.1947438128169703e+00 1.3043712283694549e-02 0.0000000000000000e+00  -1.2547756489635518e+00 1.4565080529720636e-02 0.0000000000000000e+00  -1.3211604219979298e+00 1.6383137586894591e-02 0.0000000000000000e+00  -1.3950766140038904e+00 1.8598107820839493e-02 0.0000000000000000e+00  -1.4781194827577377e+00 2.1363173199447347e-02 0.0000000000000000e+00  -1.5725034891502931e+00 2.4928362829740539e-02 0.0000000000000000e+00  -1.6816009236305711e+00 2.9753904300013793e-02 0.0000000000000000e+00  -1.8101124949593184e+00 3.6682954639223164e-02 0.0000000000000000e+00  -1.9693671894060929e+00 4.8561617072406187e-02 0.0000000000000000e+00  -2.1669087608297057e+00 7.2207230018812019e-02 0.0000000000000000e+00  -2.4796257982250238e+00 1.3585283729194783e-01 0.0000000000000000e+00  -2.9951038474652290e+00 4.5900392961452585e-01 0.0000000000000000e+00  -3.8190952695326215e+00 1.3368027280937482e+00 0.0000000000000000e+00  -5.5991814430101150e-01 7.4677758426380311e-06 0.0000000000000000e+00  -5.6020389531381731e-01 3.5438370533237676e-04 0.0000000000000000e+00  -5.6070207788059800e-01 6.8413203015080129e-04 0.0000000000000000e+00  -5.6159727239497881e-01 1.0244668507414325e-03 0.0000000000000000e+00  -5.6288590881856770e-01 1.3676093523173345e-03 0.0000000000000000e+00  -5.6459595019938813e-01 1.7171919748392144e-03 0.0000000000000000e+00  -5.6675395528794870e-01 2.0746279841849795e-03 0.0000000000000000e+00  -5.6938829981797667e-01 2.4416426809606715e-03 0.0000000000000000e+00  -5.7252925380373187e-01 2.8200213284727215e-03 0.0000000000000000e+00  -5.7620897129753301e-01 3.2116263200415007e-03 0.0000000000000000e+00  -5.8046159871476033e-01 3.6184211183157579e-03 0.0000000000000000e+00  -5.8532337847289895e-01 4.0424851408786579e-03 0.0000000000000000e+00  -5.9083277378010113e-01 4.4860326936865111e-03 0.0000000000000000e+00  -5.9703061449063222e-01 4.9514339053662697e-03 0.0000000000000000e+00  -6.0396026664705538e-01 5.4412385665062544e-03 0.0000000000000000e+00  -6.1166782924717233e-01 5.9582035576401134e-03 0.0000000000000000e+00  -6.2020236240794158e-01 6.5053246680431788e-03 0.0000000000000000e+00  -6.2961615206757282e-01 7.0858738057542536e-03 0.0000000000000000e+00  -6.3996501752489787e-01 7.7034428377276525e-03 0.0000000000000000e+00  -6.5130866956499556e-01 8.3619956161665992e-03 0.0000000000000000e+00  -6.6371112874286309e-01 9.0659301592967961e-03 0.0000000000000000e+00  -6.7724121571015938e-01 9.8201534979044363e-03 0.0000000000000000e+00  -6.9197312842177194e-01 1.0630172416006946e-02 0.0000000000000000e+00  -7.0798712486487714e-01 1.1502204272903795e-02 0.0000000000000000e+00  -7.2537033489205927e-01 1.2443313383516024e-02 0.0000000000000000e+00  -7.4421773121392820e-01 1.3461580191781852e-02 0.0000000000000000e+00  -7.6463329816841918e-01 1.4566312889939767e-02 0.0000000000000000e+00  -7.8673144832576647e-01 1.5768314505900580e-02 0.0000000000000000e+00  -8.1063875244359263e-01 1.7080223235715411e-02 0.0000000000000000e+00  -8.3649606941472032e-01 1.8516950603810433e-02 0.0000000000000000e+00  -8.6446119209987404e-01 2.0096251923780232e-02 0.0000000000000000e+00  -8.9471216599501835e-01 2.1839478147124801e-02 0.0000000000000000e+00  -9.2745149619135714e-01 2.3772580178265282e-02 0.0000000000000000e+00  -9.6291154281319280e-01 2.5927470494979846e-02 0.0000000000000000e+00  -1.0013615301283720e+00 2.8343899900198914e-02 0.0000000000000000e+00  -1.0431167822345979e+00 3.1072092462083832e-02 0.0000000000000000e+00  -1.0885510877680207e+00 3.4176522600614712e-02 0.0000000000000000e+00  -1.1381135474062629e+00 3.7741458606110841e-02 0.0000000000000000e+00  -1.1923520043787927e+00 4.1879321337879409e-02 0.0000000000000000e+00  -1.2519463285876380e+00 4.6743685426755277e-02 0.0000000000000000e+00  -1.3177571335395564e+00 5.2550264891952407e-02 0.0000000000000000e+00  -1.3908983428949224e+00 5.9612217917213009e-02 0.0000000000000000e+00  -1.4728523258775104e+00 6.8402743512976219e-02 0.0000000000000000e+00  -1.5656468798448748e+00 7.9673983048814928e-02 0.0000000000000000e+00  -1.6721760206275609e+00 9.4687951933327755e-02 0.0000000000000000e+00  -1.7966782240598993e+00 1.1576413123877342e-01 0.0000000000000000e+00  -1.9458892461379387e+00 1.4748207008298236e-01 0.0000000000000000e+00  -2.1279435789815517e+00 1.9889391675134538e-01 0.0000000000000000e+00  -2.3714694441291280e+00 2.9840488251443004e-01 0.0000000000000000e+00  -2.5924101402521993e+00 4.7009123957807941e-01 0.0000000000000000e+00  -3.0829924938995843e+00 8.6712395286459776e-01 0.0000000000000000e+00  -5.5926293552216222e-01 -9.9393996363031866e-07 0.0000000000000000e+00  -5.5968066461327082e-01 7.2410946655738855e-04 0.0000000000000000e+00  -5.6014864963733046e-01 1.4594567435903625e-03 0.0000000000000000e+00  -5.6104406166836696e-01 2.2021309151657375e-03 0.0000000000000000e+00  -5.6232272594296973e-01 2.9533720016098521e-03 0.0000000000000000e+00  -5.6402166572097301e-01 3.7184812342824732e-03 0.0000000000000000e+00  -5.6616560015954209e-01 4.5004771491102642e-03 0.0000000000000000e+00  -5.6878307470893330e-01 5.3032120275559591e-03 0.0000000000000000e+00  -5.7190421228992794e-01 6.1305397839378634e-03 0.0000000000000000e+00  -5.7556101870135168e-01 6.9865163753118917e-03 0.0000000000000000e+00  -5.7978746802883863e-01 7.8754111583008678e-03 0.0000000000000000e+00  -5.8461960076411257e-01 8.8017439986111737e-03 0.0000000000000000e+00  -5.9009564678288851e-01 9.7703256735087052e-03 0.0000000000000000e+00  -5.9625616674985327e-01 1.0786302694671917e-02 0.0000000000000000e+00  -6.0314421653401695e-01 1.1855208498584754e-02 0.0000000000000000e+00  -6.1080553764702372e-01 1.2983022229633063e-02 0.0000000000000000e+00  -6.1928877765002899e-01 1.4176236857210931e-02 0.0000000000000000e+00  -6.2864574533836703e-01 1.5441938725920833e-02 0.0000000000000000e+00  -6.3893170656510889e-01 1.6787901146492604e-02 0.0000000000000000e+00  -6.5020572788325692e-01 1.8222695294805389e-02 0.0000000000000000e+00  -6.6253107683512713e-01 1.9755822544436957e-02 0.0000000000000000e+00  -6.7597568979556955e-01 2.1397873482621788e-02 0.0000000000000000e+00  -6.9061272090829395e-01 2.3160720341254926e-02 0.0000000000000000e+00  -7.0652118902244332e-01 2.5057751546868071e-02 0.0000000000000000e+00  -7.2378674386660502e-01 2.7104159738548617e-02 0.0000000000000000e+00  -7.4250257831577204e-01 2.9317298189438148e-02 0.0000000000000000e+00  -7.6277052095137166e-01 3.1717125478327980e-02 0.0000000000000000e+00  -7.8470235280303446e-01 3.4326765063144228e-02 0.0000000000000000e+00  -8.0842140505112248e-01 3.7173215951429167e-02 0.0000000000000000e+00  -8.3406451179357388e-01 4.0288264227759281e-02 0.0000000000000000e+00  -8.6178441548926499e-01 4.3709664751709468e-02 0.0000000000000000e+00  -8.9175275493336126e-01 4.7482690969618317e-02 0.0000000000000000e+00  -9.2416381032879413e-01 5.1662193404703773e-02 0.0000000000000000e+00  -9.5923924266906035e-01 5.6315372008948671e-02 0.0000000000000000e+00  -9.9723415355662837e-01 6.1525567486856558e-02 0.0000000000000000e+00  -1.0384449185262199e+00 6.7397534605934409e-02 0.0000000000000000e+00  -1.0832194320830990e+00 7.4064916012357498e-02 0.0000000000000000e+00  -1.1319706655210819e+00 8.1701059276044624e-02 0.0000000000000000e+00  -1.1851948461144195e+00 9.0535044307465604e-02 0.0000000000000000e+00  -1.2434960521916394e+00 1.0087606408537435e-01 0.0000000000000000e+00  -1.3076200759679502e+00 1.1315162009729932e-01 0.0000000000000000e+00  -1.3785001596640865e+00 1.2796933900895222e-01 0.0000000000000000e+00  -1.4573228096500555e+00 1.4622083065264344e-01 0.0000000000000000e+00  -1.5455996338335964e+00 1.6926183355288774e-01 0.0000000000000000e+00  -1.6453100972777901e+00 1.9924118440674468e-01 0.0000000000000000e+00  -1.7587745438956184e+00 2.3970943904468564e-01 0.0000000000000000e+00  -1.8892147628865046e+00 2.9671775790666649e-01 0.0000000000000000e+00  -2.0371100466577912e+00 3.8129105958409509e-01 0.0000000000000000e+00  -2.2061079905113132e+00 5.1114075087821875e-01 0.0000000000000000e+00  -2.3489616141046619e+00 7.1406344134755972e-01 0.0000000000000000e+00  -2.5586919448835390e+00 1.0508181483060879e+00 0.0000000000000000e+00  -5.5825654181026174e-01 3.3475258883692622e-07 0.0000000000000000e+00  -5.5880506372517813e-01 1.0836546129584358e-03 0.0000000000000000e+00  -5.5923004431200751e-01 2.1706433042605160e-03 0.0000000000000000e+00  -5.6012405150628430e-01 3.2660219818251152e-03 0.0000000000000000e+00  -5.6138628092697018e-01 4.3763473401080381e-03 0.0000000000000000e+00  -5.6306689947971755e-01 5.5066394287825249e-03 0.0000000000000000e+00  -5.6518745621181321e-01 6.6619754103882144e-03 0.0000000000000000e+00  -5.6777698351305506e-01 7.8479521968501872e-03 0.0000000000000000e+00  -5.7086527529492226e-01 9.0702322948806573e-03 0.0000000000000000e+00  -5.7448411222646967e-01 1.0334793379507977e-02 0.0000000000000000e+00  -5.7866718048838250e-01 1.1647918664414147e-02 0.0000000000000000e+00  -5.8345018830301498e-01 1.3016260491968456e-02 0.0000000000000000e+00  -5.8887098162161700e-01 1.4446896531180690e-02 0.0000000000000000e+00  -5.9496967854121496e-01 1.5947395077774582e-02 0.0000000000000000e+00  -6.0178882543231693e-01 1.7525889224497167e-02 0.0000000000000000e+00  -6.0937357709820039e-01 1.9191161957989075e-02 0.0000000000000000e+00  -6.1777190464477982e-01 2.0952744641216107e-02 0.0000000000000000e+00  -6.2703483530604232e-01 2.2821031837219476e-02 0.0000000000000000e+00  -6.3721672939516638e-01 2.4807416160108113e-02 0.0000000000000000e+00  -6.4837560066227240e-01 2.6924447755781917e-02 0.0000000000000000e+00  -6.6057348771632540e-01 2.9186024206500544e-02 0.0000000000000000e+00  -6.7387688588284267e-01 3.1607618207105476e-02 0.0000000000000000e+00  -6.8835725101142486e-01 3.4206552398592591e-02 0.0000000000000000e+00  -7.0409158944054129e-01 3.7002333440317232e-02 0.0000000000000000e+00  -7.2116315173113399e-01 4.0017060998446617e-02 0.0000000000000000e+00  -7.3966225210148029e-01 4.3275932168773630e-02 0.0000000000000000e+00  -7.5968724101319274e-01 4.6807868432554134e-02 0.0000000000000000e+00  -7.8134566543162065e-01 5.0646301283681014e-02 0.0000000000000000e+00  -8.0475566039158519e-01 5.4830165221574592e-02 0.0000000000000000e+00  -8.3004762726832493e-01 5.9405164453836104e-02 0.0000000000000000e+00  -8.5736626938927285e-01 6.4425404777965434e-02 0.0000000000000000e+00  -8.8687307534261794e-01 6.9955518363059271e-02 0.0000000000000000e+00  -9.1874936577124056e-01 7.6073462212466608e-02 0.0000000000000000e+00  -9.5320005188002055e-01 8.2874249940839265e-02 0.0000000000000000e+00  -9.9045829448816070e-01 9.0474995577989825e-02 0.0000000000000000e+00  -1.0307913006642038e+00 9.9021830997693239e-02 0.0000000000000000e+00  -1.0745075484398778e+00 1.0869954440983361e-01 0.0000000000000000e+00  -1.1219657696216854e+00 1.1974524206411134e-01 0.0000000000000000e+00  -1.1735860324068188e+00 1.3246807148658357e-01 0.0000000000000000e+00  -1.2298630663657786e+00 1.4727825447463166e-01 0.0000000000000000e+00  -1.2913816853009410e+00 1.6473069147455432e-01 0.0000000000000000e+00  -1.3588318609046881e+00 1.8559176491816723e-01 0.0000000000000000e+00  -1.4330207122520631e+00 2.1094346602030251e-01 0.0000000000000000e+00  -1.5148561253504915e+00 2.4234774591881653e-01 0.0000000000000000e+00  -1.6053088049767870e+00 2.8210615865872429e-01 0.0000000000000000e+00  -1.7050821117356212e+00 3.3365107934484484e-01 0.0000000000000000e+00  -1.8145700225804218e+00 4.0213446215665116e-01 0.0000000000000000e+00  -1.9302787744417687e+00 4.9486231892781918e-01 0.0000000000000000e+00  -2.0515595851040738e+00 6.2138819113320065e-01 0.0000000000000000e+00  -2.1358258808327997e+00 7.9102436700626888e-01 0.0000000000000000e+00  -2.2633736443940449e+00 9.9062745487056902e-01 0.0000000000000000e+00  -5.5689498607321308e-01 3.4421540375801587e-07 0.0000000000000000e+00  -5.5756969399288958e-01 1.4368329579066198e-03 0.0000000000000000e+00  -5.5795136227619635e-01 2.8803610764629004e-03 0.0000000000000000e+00  -5.5884103781087147e-01 4.3370941222882530e-03 0.0000000000000000e+00  -5.6008062914647405e-01 5.8134932004946498e-03 0.0000000000000000e+00  -5.6173572763262203e-01 7.3161212458032390e-03 0.0000000000000000e+00  -5.6382373675157793e-01 8.8520724569031862e-03 0.0000000000000000e+00  -5.6637440490198987e-01 1.0428599738015782e-02 0.0000000000000000e+00  -5.6941701992920812e-01 1.2053231926042707e-02 0.0000000000000000e+00  -5.7298307144748550e-01 1.3733877019924581e-02 0.0000000000000000e+00  -5.7710584222569028e-01 1.5478846906228534e-02 0.0000000000000000e+00  -5.8182058429299410e-01 1.7296938516347848e-02 0.0000000000000000e+00  -5.8716461540861065e-01 1.9197504937985659e-02 0.0000000000000000e+00  -5.9317744585054710e-01 2.1190540612790180e-02 0.0000000000000000e+00  -5.9990092308482523e-01 2.3286777090466251e-02 0.0000000000000000e+00  -6.0737939813498332e-01 2.5497792883869816e-02 0.0000000000000000e+00  -6.1565991665920006e-01 2.7836140299119978e-02 0.0000000000000000e+00  -6.2479243825309572e-01 3.0315492957187880e-02 0.0000000000000000e+00  -6.3483008825354559e-01 3.2950818594244279e-02 0.0000000000000000e+00  -6.4582944715897372e-01 3.5758582848902390e-02 0.0000000000000000e+00  -6.5785088381645807e-01 3.8756991191436302e-02 0.0000000000000000e+00  -6.7095893978245202e-01 4.1966278022183834e-02 0.0000000000000000e+00  -6.8522277379437058e-01 4.5409054406752990e-02 0.0000000000000000e+00  -7.0071667715093811e-01 4.9110729116099899e-02 0.0000000000000000e+00  -7.1752067306645217e-01 5.3100021874421165e-02 0.0000000000000000e+00  -7.3572121581419436e-01 5.7409593361280986e-02 0.0000000000000000e+00  -7.5541200879882175e-01 6.2076824103449800e-02 0.0000000000000000e+00  -7.7669496467851762e-01 6.7144784689001411e-02 0.0000000000000000e+00  -7.9968133535599462e-01 7.2663453840546399e-02 0.0000000000000000e+00  -8.2449304506209331e-01 7.8691260395602050e-02 0.0000000000000000e+00  -8.5126426569747449e-01 8.5297052511786278e-02 0.0000000000000000e+00  -8.8014327956944671e-01 9.2562635932624107e-02 0.0000000000000000e+00  -9.1129467949196397e-01 1.0058607814535002e-01 0.0000000000000000e+00  -9.4490195737261717e-01 1.0948605463216018e-01 0.0000000000000000e+00  -9.8117052488172096e-01 1.1940762916740588e-01 0.0000000000000000e+00  -1.0203311830254258e+00 1.3053003055256895e-01 0.0000000000000000e+00  -1.0626439927318794e+00 1.4307724115852194e-01 0.0000000000000000e+00  -1.1084023506040677e+00 1.5733258996975208e-01 0.0000000000000000e+00  -1.1579367860511456e+00 1.7365910536331752e-01 0.0000000000000000e+00  -1.2116173276126732e+00 1.9252821225293626e-01 0.0000000000000000e+00  -1.2698522634540685e+00 2.1456054756695675e-01 0.0000000000000000e+00  -1.3330778174661313e+00 2.4058424308393980e-01 0.0000000000000000e+00  -1.4017317264876636e+00 2.7171779836737670e-01 0.0000000000000000e+00  -1.4761810769212291e+00 3.0948540027053389e-01 0.0000000000000000e+00  -1.5566092140794192e+00 3.5596857895952355e-01 0.0000000000000000e+00  -1.6426302282254559e+00 4.1398093293066324e-01 0.0000000000000000e+00  -1.7331727215915995e+00 4.8718795629778794e-01 0.0000000000000000e+00  -1.8238674590365846e+00 5.7994330746618017e-01 0.0000000000000000e+00  -1.9126706913796836e+00 6.9653899099070582e-01 0.0000000000000000e+00  -1.9694326533456925e+00 8.3723788368898999e-01 0.0000000000000000e+00  -2.0614620443633238e+00 9.9971858365114952e-01 0.0000000000000000e+00  -5.5518484081308095e-01 3.9851656028583843e-07 0.0000000000000000e+00  -5.5598321903634740e-01 1.7842152145958032e-03 0.0000000000000000e+00  -5.5631977408295041e-01 3.5765704352928094e-03 0.0000000000000000e+00  -5.5720052355983873e-01 5.3846863335374672e-03 0.0000000000000000e+00  -5.5841190789107786e-01 7.2169468393728222e-03 0.0000000000000000e+00  -5.6003436640751980e-01 9.0817932386289633e-03 0.0000000000000000e+00  -5.6208089968639996e-01 1.0987891506210389e-02 0.0000000000000000e+00  -5.6458205765383052e-01 1.2944172617673442e-02 0.0000000000000000e+00  -5.6756648376181384e-01 1.4959960892868433e-02 0.0000000000000000e+00  -5.7106530964913371e-01 1.7045010133938412e-02 0.0000000000000000e+00  -5.7511130525216003e-01 1.9209578523153269e-02 0.0000000000000000e+00  -5.7973915074247850e-01 2.1464513698128081e-02 0.0000000000000000e+00  -5.8498550050240239e-01 2.3821340342970822e-02 0.0000000000000000e+00  -5.9088910321909549e-01 2.6292362530702044e-02 0.0000000000000000e+00  -5.9749093190984415e-01 2.8890778405248275e-02 0.0000000000000000e+00  -6.0483433365755424e-01 3.1630811590519912e-02 0.0000000000000000e+00  -6.1296520032562707e-01 3.4527862413178116e-02 0.0000000000000000e+00  -6.2193216308409693e-01 3.7598683263445926e-02 0.0000000000000000e+00  -6.3178681396023051e-01 4.0861583316217399e-02 0.0000000000000000e+00  -6.4258395818088365e-01 4.4336669095037355e-02 0.0000000000000000e+00  -6.5438190172838751e-01 4.8046128956187234e-02 0.0000000000000000e+00  -6.6724277927911968e-01 5.2014571616450171e-02 0.0000000000000000e+00  -6.8123292855190076e-01 5.6269431491141116e-02 0.0000000000000000e+00  -6.9642331805180802e-01 6.0841457040292000e-02 0.0000000000000000e+00  -7.1289003624248393e-01 6.5765302806899142e-02 0.0000000000000000e+00  -7.30714