<?xml version="1.0"?>
<VTKFile type="UnstructuredGrid"  version="0.1"  >
<UnstructuredGrid>
<Piece  NumberOfPoints="2601" NumberOfCells="5000">
<Points>
<DataArray  type="Float64"  NumberOfComponents="3"  format="ascii">0 0 0  0.02 0 0  0.04 0 0  0.06 0 0  0.08 0 0  0.1 0 0  0.12 0 0  0.14 0 0  0.16 0 0  0.18 0 0  0.2 0 0  0.22 0 0  0.24 0 0  0.26 0 0  0.28 0 0  0.3 0 0  0.32 0 0  0.34 0 0  0.36 0 0  0.38 0 0  0.4 0 0  0.42 0 0  0.44 0 0  0.46 0 0  0.48 0 0  0.5 0 0  0.52 0 0  0.54 0 0  0.5600000000000001 0 0  0.58 0 0  0.6 0 0  0.62 0 0  0.64 0 0  0.66 0 0  0.68 0 0  0.7 0 0  0.72 0 0  0.74 0 0  0.76 0 0  0.78 0 0  0.8 0 0  0.82 0 0  0.84 0 0  0.86 0 0  0.88 0 0  0.9 0 0  0.92 0 0  0.9399999999999999 0 0  0.96 0 0  0.98 0 0  1 0 0  0 0.02 0  0.02 0.02 0  0.04 0.02 0  0.06 0.02 0  0.08 0.02 0  0.1 0.02 0  0.12 0.02 0  0.14 0.02 0  0.16 0.02 0  0.18 0.02 0  0.2 0.02 0  0.22 0.02 0  0.24 0.02 0  0.26 0.02 0  0.28 0.02 0  0.3 0.02 0  0.32 0.02 0  0.34 0.02 0  0.36 0.02 0  0.38 0.02 0  0.4 0.02 0  0.42 0.02 0  0.44 0.02 0  0.46 0.02 0  0.48 0.02 0  0.5 0.02 0  0.52 0.02 0  0.54 0.02 0  0.5600000000000001 0.02 0  0.58 0.02 0  0.6 0.02 0  0.62 0.02 0  0.64 0.02 0  0.66 0.02 0  0.68 0.02 0  0.7 0.02 0  0.72 0.02 0  0.74 0.02 0  0.76 0.02 0  0.78 0.02 0  0.8 0.02 0  0.82 0.02 0  0.84 0.02 0  0.86 0.02 0  0.88 0.02 0  0.9 0.02 0  0.92 0.02 0  0.9399999999999999 0.02 0  0.96 0.02 0  0.98 0.02 0  1 0.02 0  0 0.04 0  0.02 0.04 0  0.04 0.04 0  0.06 0.04 0  0.08 0.04 0  0.1 0.04 0  0.12 0.04 0  0.14 0.04 0  0.16 0.04 0  0.18 0.04 0  0.2 0.04 0  0.22 0.04 0  0.24 0.04 0  0.26 0.04 0  0.28 0.04 0  0.3 0.04 0  0.32 0.04 0  0.34 0.04 0  0.36 0.04 0  0.38 0.04 0  0.4 0.04 0  0.42 0.04 0  0.44 0.04 0  0.46 0.04 0  0.48 0.04 0  0.5 0.04 0  0.52 0.04 0  0.54 0.04 0  0.5600000000000001 0.04 0  0.58 0.04 0  0.6 0.04 0  0.62 0.04 0  0.64 0.04 0  0.66 0.04 0  0.68 0.04 0  0.7 0.04 0  0.72 0.04 0  0.74 0.04 0  0.76 0.04 0  0.78 0.04 0  0.8 0.04 0  0.82 0.04 0  0.84 0.04 0  0.86 0.04 0  0.88 0.04 0  0.9 0.04 0  0.92 0.04 0  0.9399999999999999 0.04 0  0.96 0.04 0  0.98 0.04 0  1 0.04 0  0 0.06 0  0.02 0.06 0  0.04 0.06 0  0.06 0.06 0  0.08 0.06 0  0.1 0.06 0  0.12 0.06 0  0.14 0.06 0  0.16 0.06 0  0.18 0.06 0  0.2 0.06 0  0.22 0.06 0  0.24 0.06 0  0.26 0.06 0  0.28 0.06 0  0.3 0.06 0  0.32 0.06 0  0.34 0.06 0  0.36 0.06 0  0.38 0.06 0  0.4 0.06 0  0.42 0.06 0  0.44 0.06 0  0.46 0.06 0  0.48 0.06 0  0.5 0.06 0  0.52 0.06 0  0.54 0.06 0  0.5600000000000001 0.06 0  0.58 0.06 0  0.6 0.06 0  0.62 0.06 0  0.64 0.06 0  0.66 0.06 0  0.68 0.06 0  0.7 0.06 0  0.72 0.06 0  0.74 0.06 0  0.76 0.06 0  0.78 0.06 0  0.8 0.06 0  0.82 0.06 0  0.84 0.06 0  0.86 0.06 0  0.88 0.06 0  0.9 0.06 0  0.92 0.06 0  0.9399999999999999 0.06 0  0.96 0.06 0  0.98 0.06 0  1 0.06 0  0 0.08 0  0.02 0.08 0  0.04 0.08 0  0.06 0.08 0  0.08 0.08 0  0.1 0.08 0  0.12 0.08 0  0.14 0.08 0  0.16 0.08 0  0.18 0.08 0  0.2 0.08 0  0.22 0.08 0  0.24 0.08 0  0.26 0.08 0  0.28 0.08 0  0.3 0.08 0  0.32 0.08 0  0.34 0.08 0  0.36 0.08 0  0.38 0.08 0  0.4 0.08 0  0.42 0.08 0  0.44 0.08 0  0.46 0.08 0  0.48 0.08 0  0.5 0.08 0  0.52 0.08 0  0.54 0.08 0  0.5600000000000001 0.08 0  0.58 0.08 0  0.6 0.08 0  0.62 0.08 0  0.64 0.08 0  0.66 0.08 0  0.68 0.08 0  0.7 0.08 0  0.72 0.08 0  0.74 0.08 0  0.76 0.08 0  0.78 0.08 0  0.8 0.08 0  0.82 0.08 0  0.84 0.08 0  0.86 0.08 0  0.88 0.08 0  0.9 0.08 0  0.92 0.08 0  0.9399999999999999 0.08 0  0.96 0.08 0  0.98 0.08 0  1 0.08 0  0 0.1 0  0.02 0.1 0  0.04 0.1 0  0.06 0.1 0  0.08 0.1 0  0.1 0.1 0  0.12 0.1 0  0.14 0.1 0  0.16 0.1 0  0.18 0.1 0  0.2 0.1 0  0.22 0.1 0  0.24 0.1 0  0.26 0.1 0  0.28 0.1 0  0.3 0.1 0  0.32 0.1 0  0.34 0.1 0  0.36 0.1 0  0.38 0.1 0  0.4 0.1 0  0.42 0.1 0  0.44 0.1 0  0.46 0.1 0  0.48 0.1 0  0.5 0.1 0  0.52 0.1 0  0.54 0.1 0  0.5600000000000001 0.1 0  0.58 0.1 0  0.6 0.1 0  0.62 0.1 0  0.64 0.1 0  0.66 0.1 0  0.68 0.1 0  0.7 0.1 0  0.72 0.1 0  0.74 0.1 0  0.76 0.1 0  0.78 0.1 0  0.8 0.1 0  0.82 0.1 0  0.84 0.1 0  0.86 0.1 0  0.88 0.1 0  0.9 0.1 0  0.92 0.1 0  0.9399999999999999 0.1 0  0.96 0.1 0  0.98 0.1 0  1 0.1 0  0 0.12 0  0.02 0.12 0  0.04 0.12 0  0.06 0.12 0  0.08 0.12 0  0.1 0.12 0  0.12 0.12 0  0.14 0.12 0  0.16 0.12 0  0.18 0.12 0  0.2 0.12 0  0.22 0.12 0  0.24 0.12 0  0.26 0.12 0  0.28 0.12 0  0.3 0.12 0  0.32 0.12 0  0.34 0.12 0  0.36 0.12 0  0.38 0.12 0  0.4 0.12 0  0.42 0.12 0  0.44 0.12 0  0.46 0.12 0  0.48 0.12 0  0.5 0.12 0  0.52 0.12 0  0.54 0.12 0  0.5600000000000001 0.12 0  0.58 0.12 0  0.6 0.12 0  0.62 0.12 0  0.64 0.12 0  0.66 0.12 0  0.68 0.12 0  0.7 0.12 0  0.72 0.12 0  0.74 0.12 0  0.76 0.12 0  0.78 0.12 0  0.8 0.12 0  0.82 0.12 0  0.84 0.12 0  0.86 0.12 0  0.88 0.12 0  0.9 0.12 0  0.92 0.12 0  0.9399999999999999 0.12 0  0.96 0.12 0  0.98 0.12 0  1 0.12 0  0 0.14 0  0.02 0.14 0  0.04 0.14 0  0.06 0.14 0  0.08 0.14 0  0.1 0.14 0  0.12 0.14 0  0.14 0.14 0  0.16 0.14 0  0.18 0.14 0  0.2 0.14 0  0.22 0.14 0  0.24 0.14 0  0.26 0.14 0  0.28 0.14 0  0.3 0.14 0  0.32 0.14 0  0.34 0.14 0  0.36 0.14 0  0.38 0.14 0  0.4 0.14 0  0.42 0.14 0  0.44 0.14 0  0.46 0.14 0  0.48 0.14 0  0.5 0.14 0  0.52 0.14 0  0.54 0.14 0  0.5600000000000001 0.14 0  0.58 0.14 0  0.6 0.14 0  0.62 0.14 0  0.64 0.14 0  0.66 0.14 0  0.68 0.14 0  0.7 0.14 0  0.72 0.14 0  0.74 0.14 0  0.76 0.14 0  0.78 0.14 0  0.8 0.14 0  0.82 0.14 0  0.84 0.14 0  0.86 0.14 0  0.88 0.14 0  0.9 0.14 0  0.92 0.14 0  0.9399999999999999 0.14 0  0.96 0.14 0  0.98 0.14 0  1 0.14 0  0 0.16 0  0.02 0.16 0  0.04 0.16 0  0.06 0.16 0  0.08 0.16 0  0.1 0.16 0  0.12 0.16 0  0.14 0.16 0  0.16 0.16 0  0.18 0.16 0  0.2 0.16 0  0.22 0.16 0  0.24 0.16 0  0.26 0.16 0  0.28 0.16 0  0.3 0.16 0  0.32 0.16 0  0.34 0.16 0  0.36 0.16 0  0.38 0.16 0  0.4 0.16 0  0.42 0.16 0  0.44 0.16 0  0.46 0.16 0  0.48 0.16 0  0.5 0.16 0  0.52 0.16 0  0.54 0.16 0  0.5600000000000001 0.16 0  0.58 0.16 0  0.6 0.16 0  0.62 0.16 0  0.64 0.16 0  0.66 0.16 0  0.68 0.16 0  0.7 0.16 0  0.72 0.16 0  0.74 0.16 0  0.76 0.16 0  0.78 0.16 0  0.8 0.16 0  0.82 0.16 0  0.84 0.16 0  0.86 0.16 0  0.88 0.16 0  0.9 0.16 0  0.92 0.16 0  0.9399999999999999 0.16 0  0.96 0.16 0  0.98 0.16 0  1 0.16 0  0 0.18 0  0.02 0.18 0  0.04 0.18 0  0.06 0.18 0  0.08 0.18 0  0.1 0.18 0  0.12 0.18 0  0.14 0.18 0  0.16 0.18 0  0.18 0.18 0  0.2 0.18 0  0.22 0.18 0  0.24 0.18 0  0.26 0.18 0  0.28 0.18 0  0.3 0.18 0  0.32 0.18 0  0.34 0.18 0  0.36 0.18 0  0.38 0.18 0  0.4 0.18 0  0.42 0.18 0  0.44 0.18 0  0.46 0.18 0  0.48 0.18 0  0.5 0.18 0  0.52 0.18 0  0.54 0.18 0  0.5600000000000001 0.18 0  0.58 0.18 0  0.6 0.18 0  0.62 0.18 0  0.64 0.18 0  0.66 0.18 0  0.68 0.18 0  0.7 0.18 0  0.72 0.18 0  0.74 0.18 0  0.76 0.18 0  0.78 0.18 0  0.8 0.18 0  0.82 0.18 0  0.84 0.18 0  0.86 0.18 0  0.88 0.18 0  0.9 0.18 0  0.92 0.18 0  0.9399999999999999 0.18 0  0.96 0.18 0  0.98 0.18 0  1 0.18 0  0 0.2 0  0.02 0.2 0  0.04 0.2 0  0.06 0.2 0  0.08 0.2 0  0.1 0.2 0  0.12 0.2 0  0.14 0.2 0  0.16 0.2 0  0.18 0.2 0  0.2 0.2 0  0.22 0.2 0  0.24 0.2 0  0.26 0.2 0  0.28 0.2 0  0.3 0.2 0  0.32 0.2 0  0.34 0.2 0  0.36 0.2 0  0.38 0.2 0  0.4 0.2 0  0.42 0.2 0  0.44 0.2 0  0.46 0.2 0  0.48 0.2 0  0.5 0.2 0  0.52 0.2 0  0.54 0.2 0  0.5600000000000001 0.2 0  0.58 0.2 0  0.6 0.2 0  0.62 0.2 0  0.64 0.2 0  0.66 0.2 0  0.68 0.2 0  0.7 0.2 0  0.72 0.2 0  0.74 0.2 0  0.76 0.2 0  0.78 0.2 0  0.8 0.2 0  0.82 0.2 0  0.84 0.2 0  0.86 0.2 0  0.88 0.2 0  0.9 0.2 0  0.92 0.2 0  0.9399999999999999 0.2 0  0.96 0.2 0  0.98 0.2 0  1 0.2 0  0 0.22 0  0.02 0.22 0  0.04 0.22 0  0.06 0.22 0  0.08 0.22 0  0.1 0.22 0  0.12 0.22 0  0.14 0.22 0  0.16 0.22 0  0.18 0.22 0  0.2 0.22 0  0.22 0.22 0  0.24 0.22 0  0.26 0.22 0  0.28 0.22 0  0.3 0.22 0  0.32 0.22 0  0.34 0.22 0  0.36 0.22 0  0.38 0.22 0  0.4 0.22 0  0.42 0.22 0  0.44 0.22 0  0.46 0.22 0  0.48 0.22 0  0.5 0.22 0  0.52 0.22 0  0.54 0.22 0  0.5600000000000001 0.22 0  0.58 0.22 0  0.6 0.22 0  0.62 0.22 0  0.64 0.22 0  0.66 0.22 0  0.68 0.22 0  0.7 0.22 0  0.72 0.22 0  0.74 0.22 0  0.76 0.22 0  0.78 0.22 0  0.8 0.22 0  0.82 0.22 0  0.84 0.22 0  0.86 0.22 0  0.88 0.22 0  0.9 0.22 0  0.92 0.22 0  0.9399999999999999 0.22 0  0.96 0.22 0  0.98 0.22 0  1 0.22 0  0 0.24 0  0.02 0.24 0  0.04 0.24 0  0.06 0.24 0  0.08 0.24 0  0.1 0.24 0  0.12 0.24 0  0.14 0.24 0  0.16 0.24 0  0.18 0.24 0  0.2 0.24 0  0.22 0.24 0  0.24 0.24 0  0.26 0.24 0  0.28 0.24 0  0.3 0.24 0  0.32 0.24 0  0.34 0.24 0  0.36 0.24 0  0.38 0.24 0  0.4 0.24 0  0.42 0.24 0  0.44 0.24 0  0.46 0.24 0  0.48 0.24 0  0.5 0.24 0  0.52 0.24 0  0.54 0.24 0  0.5600000000000001 0.24 0  0.58 0.24 0  0.6 0.24 0  0.62 0.24 0  0.64 0.24 0  0.66 0.24 0  0.68 0.24 0  0.7 0.24 0  0.72 0.24 0  0.74 0.24 0  0.76 0.24 0  0.78 0.24 0  0.8 0.24 0  0.82 0.24 0  0.84 0.24 0  0.86 0.24 0  0.88 0.24 0  0.9 0.24 0  0.92 0.24 0  0.9399999999999999 0.24 0  0.96 0.24 0  0.98 0.24 0  1 0.24 0  0 0.26 0  0.02 0.26 0  0.04 0.26 0  0.06 0.26 0  0.08 0.26 0  0.1 0.26 0  0.12 0.26 0  0.14 0.26 0  0.16 0.26 0  0.18 0.26 0  0.2 0.26 0  0.22 0.26 0  0.24 0.26 0  0.26 0.26 0  0.28 0.26 0  0.3 0.26 0  0.32 0.26 0  0.34 0.26 0  0.36 0.26 0  0.38 0.26 0  0.4 0.26 0  0.42 0.26 0  0.44 0.26 0  0.46 0.26 0  0.48 0.26 0  0.5 0.26 0  0.52 0.26 0  0.54 0.26 0  0.5600000000000001 0.26 0  0.58 0.26 0  0.6 0.26 0  0.62 0.26 0  0.64 0.26 0  0.66 0.26 0  0.68 0.26 0  0.7 0.26 0  0.72 0.26 0  0.74 0.26 0  0.76 0.26 0  0.78 0.26 0  0.8 0.26 0  0.82 0.26 0  0.84 0.26 0  0.86 0.26 0  0.88 0.26 0  0.9 0.26 0  0.92 0.26 0  0.9399999999999999 0.26 0  0.96 0.26 0  0.98 0.26 0  1 0.26 0  0 0.28 0  0.02 0.28 0  0.04 0.28 0  0.06 0.28 0  0.08 0.28 0  0.1 0.28 0  0.12 0.28 0  0.14 0.28 0  0.16 0.28 0  0.18 0.28 0  0.2 0.28 0  0.22 0.28 0  0.24 0.28 0  0.26 0.28 0  0.28 0.28 0  0.3 0.28 0  0.32 0.28 0  0.34 0.28 0  0.36 0.28 0  0.38 0.28 0  0.4 0.28 0  0.42 0.28 0  0.44 0.28 0  0.46 0.28 0  0.48 0.28 0  0.5 0.28 0  0.52 0.28 0  0.54 0.28 0  0.5600000000000001 0.28 0  0.58 0.28 0  0.6 0.28 0  0.62 0.28 0  0.64 0.28 0  0.66 0.28 0  0.68 0.28 0  0.7 0.28 0  0.72 0.28 0  0.74 0.28 0  0.76 0.28 0  0.78 0.28 0  0.8 0.28 0  0.82 0.28 0  0.84 0.28 0  0.86 0.28
[...]
<PointData  Scalars="f_17"> 
<DataArray  type="Float64"  Name="f_17"  format="ascii">1.0000000000000000e+00  9.7149713355969591e-01  9.4311905780622962e-01  9.1496656995050807e-01  8.8712971264670415e-01  8.5968714283434133e-01  8.3270670996984153e-01  8.0624627513115044e-01  7.8035454170078666e-01  7.5507183927461030e-01  7.3043084598483388e-01  7.0645724682262734e-01  6.8317032943741063e-01  6.6058352014396082e-01  6.3870486319246778e-01  6.1753744631276553e-01  5.9707977533941314e-01  5.7732610044221411e-01  5.5826669616163460e-01  5.3988809709337215e-01  5.2217329068320373e-01  5.0510186817783176e-01  4.8865013432033455e-01  4.7279117586566322e-01  4.5749488840230812e-01  4.4272796027321110e-01  4.2845381155448281e-01  4.1463248502247357e-01  4.0122048474573530e-01  3.8817055627604879e-01  3.7543140023537441e-01  3.6294730819008847e-01  3.5065770575470001e-01  3.3849658239891262e-01  3.2639177971321343e-01  3.1426409876913225e-01  3.0202617083691213e-01  2.8958101102190326e-01  2.7682013609246447e-01  2.6362106656717527e-01  2.4984393174944183e-01  2.3532672130065033e-01  2.1987840895607233e-01  2.0326855976698047e-01  1.8521075038558060e-01  1.6533418186002605e-01  1.4313020498496781e-01  1.1783763467508566e-01  8.8152197325021012e-02  5.1338784053719944e-02  0.0000000000000000e+00  1.0000000000000000e+00  9.7150569730781478e-01  9.4313126479891052e-01  9.1498125884215642e-01  8.8714663097319213e-01  8.5970629617627037e-01  8.3272819672359555e-01  8.0627023859632396e-01  7.8038115423259413e-01  7.5510129665886405e-01  7.3046336568285863e-01  7.0649306796464972e-01  6.8320971376063100e-01  6.6062675354270761e-01  6.3875225774071942e-01  6.1758934270955579e-01  5.9713654577643016e-01  5.7738815192430815e-01  5.5833447433550631e-01  5.3996209066280476e-01  5.2225403651409086e-01  5.0518995722547044e-01  4.8874621854751898e-01  4.7289597636596314e-01  4.5760920500233337e-01  4.4285268296581276e-01  4.2858993421895103e-01  4.1478112202818024e-01  4.0138289122738580e-01  3.8834815313398441e-01  3.7562580528668044e-01  3.6316037542692925e-01  3.5089157543552407e-01  3.3875374583412671e-01  3.2667516431933874e-01  3.1457718160684472e-01  3.0237313302919488e-01  2.8996695226238128e-01  2.7725137993724230e-01  2.6410560732240435e-01  2.5039211066615319e-01  2.3595229128737386e-01  2.2060029521047111e-01  2.0411395765546642e-01  1.8622103614634239e-01  1.6657746663427497e-01  1.4473195516726581e-01  1.2006862678203890e-01  9.1727146369493001e-02  5.8588243647483225e-02  1.9998666693333080e-02  1.0000000000000000e+00  9.7151677566752159e-01  9.4315185061007056e-01  9.1501049957874536e-01  8.8718422420298837e-01  8.5975224558939478e-01  8.3278268255343313e-01  8.0633355774471072e-01  7.8045369344739968e-01  7.5518352102102904e-01  7.3055581456262597e-01  7.0659635497992579e-01  6.8332452916391295e-01  6.6075386831106531e-01  6.3889252904749649e-01  6.1774372066648908e-01  5.9730608145768316e-01  5.7757400676780568e-01  5.5853793108552363e-01  5.4018456608395871e-01  5.2249709617915774e-01  5.0545533276474974e-01  4.8903582785282912e-01  4.7321194737618594e-01  4.5795390387058299e-01  4.4322874763555614e-01  4.2900031473838529e-01  4.1522912933827105e-01  4.0187225671178295e-01  3.8888310198124298e-01  3.7621114778065368e-01  3.6380162179268488e-01  3.5159508204726808e-01  3.3952690378923095e-01  3.2752664616662314e-01  3.1551726933006358e-01  3.0341416183435294e-01  2.9112392312098034e-01  2.7854282431876504e-01  2.6555483975804045e-01  2.5202909765966802e-01  2.3781653748671139e-01  2.2274548326906091e-01  2.0661576539450072e-01  1.8919103696965964e-01  1.7018936699221909e-01  1.4927418500141962e-01  1.2605486124403345e-01  1.0012958538386073e-01  7.1270162827693703e-02  3.9989334186634161e-02  1.0000000000000000e+00  9.7153199017112901e-01  9.4318175527442238e-01  9.1505470461690652e-01  8.8724261530723869e-01  8.5982495167348572e-01  8.3287002461240123e-01  8.0643601290116618e-01  7.8057187455786448e-01  7.5531816695207077e-01  7.3070778724059626e-01  7.0676664084061647e-01  6.8351424368590696e-01  6.6096426294935862e-01  6.3912500025398522e-01  6.1799982090890160e-01  5.9758753229807249e-01  5.7788271417505066e-01  5.5887600325622788e-01  5.4055433414715126e-01  5.2290113827302265e-01  5.0589650210797354e-01  4.8951728559944879e-01  4.7373720125377472e-01  4.5852685387371206e-01  4.4385374040217002e-01  4.2968220870712276e-01  4.1597337341392177e-01  4.0268498601719149e-01  3.8977125543920743e-01  3.7718261388493385e-01  3.6486542119778015e-01  3.5276159884458003e-01  3.4080818202821073e-01  3.2893677509246588e-01  3.1707289118698140e-01  3.0513515197623248e-01  2.9303431704119182e-01  2.8067210603850579e-01  2.6793977137066555e-01  2.5471637981401912e-01  2.4086678028781894e-01  2.2623930135297068e-01  2.1066340785666637e-01  1.9394802286890325e-01  1.7588238902963652e-01  1.5624408960497291e-01  1.3482490658883869e-01  1.1149685060291212e-01  8.6355637798485360e-02  5.9964006479444588e-02  1.0000000000000000e+00  9.7155191245625439e-01  9.4322145726528117e-01  9.1511411118145958e-01  8.8732182790672942e-01  8.5992427305557306e-01  8.3298995129326348e-01  8.0657722225203410e-01  7.8073521543000735e-01  7.5550465546403578e-01  7.3091860719240387e-01  7.0700314790833896e-01  6.8377797274517071e-01  6.6125693813961484e-01  6.3944854761762393e-01  6.1835638361189116e-01  5.9797948857702687e-01  5.7831269827632437e-01  5.5934692974987699e-01  5.4106942612390607e-01  5.2346396007623930e-01  5.0651099742555472e-01  4.9018782195531446e-01  4.7446862220997127e-01  4.5932454060287037e-01  4.4472368474294960e-01  4.3063110040998742e-01  4.1700870507345078e-01  4.0381518024430341e-01  3.9100582025848357e-01  3.7853233430307165e-01  3.6634259760601157e-01  3.5438034672867896e-01  3.4258481287449610e-01  3.3089028617684368e-01  3.1922560332429029e-01  3.0751355118171542e-01  2.9567018140970103e-01  2.8360403774513032e-01  2.7121531310200059e-01  2.5839498694658763e-01  2.4502406223750567e-01  2.3097316047820890e-01  2.1610301044816921e-01  2.0026690571956848e-01  1.8331721893781608e-01  1.6511982812306439e-01  1.4558292532041867e-01  1.2470893067451866e-01  1.0267426459627274e-01  7.9914693969172695e-02  1.0000000000000000e+00  9.7157673535697531e-01  9.4327112901463361e-01  9.1518875855674220e-01  8.8742174052248846e-01  8.6004993314037936e-01  8.3314204285141158e-01  8.0675663203984738e-01  7.8094303279276034e-01  7.5574217403795207e-01  7.3118732943979114e-01  7.0730479264733115e-01  6.8411448560927768e-01  6.6163050490844977e-01  6.3986161044546253e-01  6.1881166028724899e-01  5.9847999505743499e-01  5.7886177485710810e-01  5.5994827134909186e-01  5.4172711730498291e-01  5.2418251559410900e-01  5.0729540928145311e-01  4.9104361419294407e-01  4.7540191499759515e-01  4.6034212554375981e-01  4.4583311386921115e-01  4.3184079198131065e-01  4.1832807017656293e-01  4.0525477534556176e-01  3.9257753240579540e-01  3.8024960775210975e-01  3.6822071347030938e-01  3.5643677112613126e-01  3.4483963440073151e-01  3.3336677101133416e-01  3.2195090678379090e-01  3.1051963939483040e-01  2.9899503785583909e-01  2.8729325920186510e-01  2.7532424119664578e-01  2.6299157802784834e-01  2.5019277003406265e-01  2.3682018328346952e-01  2.2276329828286678e-01  2.0791321863888865e-01  1.9217098716322470e-01  1.7546195182376395e-01  1.5775880694344172e-01  1.3911464347662661e-01  1.1970130314726837e-01  9.9833416646828155e-02  1.0000000000000000e+00  9.7160648885652612e-01  9.4333075347121154e-01  9.1527851886994582e-01  8.8754208305017002e-01  8.6020150932440698e-01  8.3332572270900607e-01  8.0697351193346101e-01  7.8119444138994454e-01  7.5602967887962569e-01  7.3151274536929944e-01  7.0767019268967146e-01  6.8452221458686535e-01  6.6208319598193188e-01  6.4036220477470962e-01  6.1936343006558325e-01  5.9908657025721801e-01  5.7952717412868693e-01  5.6067693763745619e-01  5.4252395889337723e-01  5.2505295345813829e-01  5.0824543185026361e-01  4.9207984087801981e-01  4.7653167018042314e-01  4.6157352513177580e-01  4.4717516706244187e-01  4.3330352157647162e-01  4.1992265562005132e-01  4.0699372389797150e-01  3.9447488528793845e-01  3.8232119012798482e-01  3.7048443975173251e-01  3.5891302058137708e-01  3.4755171671702517e-01  3.3634150769587301e-01  3.2521936259599937e-01  3.1411804898378753e-01  3.0296598703691846e-01  2.9168719818450850e-01  2.8020142794752961e-01  2.6842457061118846e-01  2.5626959785584280e-01  2.4364830580435815e-01  2.3047435543226716e-01  2.1666828776840491e-01  2.0216540261490804e-01  1.8692744209288095e-01  1.7095853369113659e-01  1.5432408412761778e-01  1.3716733516797075e-01  1.1971220728891938e-01  1.0000000000000000e+00  9.7164111836679623e-01  9.4340018984541407e-01  9.1538313032801710e-01  8.8768244832320675e-01  8.6037843513770151e-01  8.3354025730557302e-01  8.0722695574617542e-01  7.8148835668060990e-01  7.5636589988038383e-01  7.3189338997452569e-01  7.0809767636098864e-01  6.8499926690483615e-01  6.6261288017484010e-01  6.4094794053553672e-01  6.2000902000161195e-01  5.9979623038432850e-01  5.8030556891595453e-01  5.6152922022508844e-01  5.4345581725062042e-01  5.2607066342282238e-01  5.0935591820612358e-01  4.9329074789051025e-01  4.7785144334044832e-01  4.6301150626773402e-01  4.4874170549769415e-01  4.3501010466229278e-01  4.2178206280280967e-01  4.0902020953492640e-01  3.9668439677464939e-01  3.8473162962610746e-01  3.7311598001459750e-01  3.6178848819453152e-01  3.5069705964913311e-01  3.3978636854198624e-01  3.2899778440004890e-01  3.1826934702141962e-01  3.0753582704691285e-01  2.9672892810884821e-01  2.8577771353307829e-01  2.7460937936520669e-01  2.6315054912236124e-01  2.5132933522834522e-01  2.3907849175562415e-01  2.2634004965581600e-01  2.1307181907277165e-01  1.9925593794932150e-01  1.8490902723898123e-01  1.7009221768527191e-01  1.5491727987709497e-01  1.3954311464423649e-01  1.0000000000000000e+00  9.7168051692367186e-01  9.4347920935745488e-01  9.1550222249128499e-01  8.8784230662505659e-01  8.6058000816138713e-01  8.3378476127664403e-01  8.0751588632915805e-01  7.8182350076532148e-01  7.5674934823247353e-01  7.3232755150377649e-01  7.0858529459286546e-01  6.8554343911274662e-01  6.6321707956231346e-01  6.4161604184260690e-01  6.2074532893622048e-01  6.0060551733808332e-01  5.8119310750869968e-01  5.6250083133297624e-01  5.4451791930933657e-01  5.2723032996543440e-01  5.1062094380010958e-01  4.9466972388965186e-01  4.7935384517570911e-01  4.6464779438135478e-01  4.5052344249448856e-01  4.3695009183386047e-01  4.2389449990152195e-01  4.1132088256820998e-01  3.9919089969511601e-01  3.8746362715286281e-01  3.7609552047972594e-01  3.6504037730226496e-01  3.5424930837258006e-01  3.4367073100883838e-01  3.3325040434635045e-01  3.2293153377271305e-01  3.1265498308335377e-01  3.0235964827355083e-01  2.9198306752187803e-01  2.8146236845549616e-01  2.7073568545687704e-01  2.5974421235783707e-01  2.4843507790412103e-01  2.3676521800986078e-01  2.2470632393459122e-01  2.1225069680409228e-01  1.9941735053743115e-01  1.8625693923447040e-01  1.7285320212215977e-01  1.5931820661424598e-01  1.0000000000000000e+00  9.7172454025963406e-01  9.4356751543260431e-01  9.1563533416080234e-01  8.8802101912601916e-01  8.6080539991094795e-01  8.3405820550585719e-01  8.0783906330505328e-01  7.8219841086415021e-01  7.5717832634320303e-01  7.3281328327500350e-01  7.0913083499627061e-01  6.8615223374740553e-01  6.6389298909576044e-01  6.4236336998495569e-01  6.2156885437238918e-01  6.0151053009758715e-01  5.8218545033051095e-01  5.6358694668428855e-01  5.4570490284316486e-01  5.2852599135604061e-01  5.1203387608214534e-01  4.9620938265310716e-01  4.8103063924243078e-01  4.6647318991995801e-01  4.5251008293067452e-01  4.3911193639590207e-01  4.2624698422076540e-01  4.1388110544675927e-01  4.0197784097029687e-01  3.9049840253687912e-01  3.7940168032465332e-01  3.6864425739739631e-01  3.5818044203067417e-01  3.4796233265006082e-01  3.3793993518492377e-01  3.2806135940918069e-01  3.1827312969953314e-01  3.0852065688342950e-01  2.9874893142399850e-01  2.8890351322313146e-01  2.7893190723959893e-01  2.6878542118674520e-01  2.5842159081272942e-01  2.4780721106701625e-01  2.3692190052376674e-01  2.2576192015102201e-01  2.1434364762428076e-01  2.0270571095007955e-01  1.9090846513349696e-01  1.7902957342582418e-01  1.0000000000000000e+00  9.7177301485012213e-01  9.4366475599110944e-01  9.1578192620845056e-01  8.8821784946861515e-01  8.6105366602672517e-01  8.3435942656507678e-01  8.0819509258750033e-01  7.8261144965635254e-01  7.5765093958474117e-01  7.3334841730496714e-01  7.0973183777259119e-01  6.8682287791194174e-01  6.6463749826008778e-01  6.4318644862728946e-01  6.2247572176923782e-01  6.0250695876572213e-01  5.8327780952593211e-01  5.6478225159565010e-01  5.4701087022899963e-01  5.2995110251044886e-01  5.1358744817566548e-01  4.9790164968845113e-01  4.8287284409353981e-01  4.6847768919286281e-01  4.5469046670150687e-01  4.4148316525007836e-01  4.2882554644095988e-01  4.1668519767486650e-01  4.0502757619140412e-01  3.9381604977868795e-01  3.8301194098729063e-01  3.7257458353980039e-01  3.6246140208966449e-01  3.5262802970256302e-01  3.4302848156808835e-01  3.3361540863037897e-01  3.2434046108896514e-01  3.1515479887188752e-01  3.0600979356454183e-01  2.9685797238094852e-01  2.8765425664634542e-01  2.7835753977545480e-01  2.6893262475749991e-01  2.5935248739147027e-01  2.4960073611337116e-01  2.3967399362203173e-01  2.2958373798173329e-01  2.1935695705545877e-01  2.0903489260359673e-01  1.9866933079506122e-01  1.0000000000000000e+00  9.7182574281083522e-01  9.4377053165619107e-01  9.1594139125358920e-01  8.8843197374401939e-01  8.6132375618880941e-01  8.3468713675028194e-01  8.0858243696816356e-01  7.8306081690651963e-01  7.5816510942271509e-01  7.3393057936346773e-01  7.1038561309230364e-01  6.8755234337934401e-01  6.6544721433106568e-01  6.4408149070376430e-01  6.2346171563210517e-01  6.0359012051639971e-01  5.8446499055212375e-01  5.6608098915556637e-01  5.4842944434341656e-01  5.3149859996510473e-01  5.1527383456937104e-01  4.9973785061688109e-01  4.8487083673688197e-01  4.7065060577863371e-01  4.5705271154206067e-01  4.4405054730539184e-01  4.3161542962485039e-01  4.1971667139374680e-01  4.0832164885478256e-01  3.9739586820824041e-01  3.8690303870774762e-01  3.7680516075019355e-01  3.6706263951619955e-01  3.5763443726325184e-01  3.4847828044574181e-01  3.3955094139330438e-01  3.3080861813644130e-01  3.2220743968271359e-01  3.1370412673861170e-01  3.0525683798078046e-01  2.9682622696480004e-01  2.8837672083136384e-01  2.7987800407222690e-01  2.7130664309963781e-01  2.6264771606552428e-01  2.5389621902159959e-01  2.4505791872885804e-01  2.3614924960624045e-01  2.2719586570820122e-01  2.1822962308086932e-01  1.0000000000000000e+00  9.7188250527376652e-01  9.4388440179277400e-01  9.1611306143253712e-01  8.8866248928927849e-01  8.6161452362708979e-01  8.3503993432214474e-01  8.0899942731187402e-01  7.8354456193628175e-01  7.5871858752029120e-01  7.3455720507381683e-01  7.1108925956276881e-01  6.8833736781661603e-01  6.6631848677936689e-01  6.4504442647813920e-01  6.2452231177677353e-01  6.0475499670253086e-01  5.8574143488362751e-01  5.6747700941664259e-01  5.4995382529832948e-01  5.3316096740957830e-01  5.1708472693453389e-01  5.0170879904081855e-01  4.8701445464485471e-01  4.7298068914885266e-01  4.5958435117531932e-01  4.4680025455617722e-01  4.3460127717573493e-01  4.2295845074272448e-01  4.1184104620347489e-01  4.0121666033647890e-01  3.9105131012012978e-01  3.8130954276961548e-01  3.7195457091448142e-01  3.6294844422879591e-01  3.5425227087569949e-01  3.4582650424433559e-01  3.3763131235091021e-01  3.2962704842907020e-01  3.2177484079278379e-01  3.1403731670282037e-01  3.0637946683445622e-01  2.9876964161637393e-01  2.9118064552659029e-01  2.8359085830240915e-01  2.7598526308973981e-01  2.6835620583729802e-01  2.6070366080573182e-01  2.5303475700272837e-01  2.4536235986407295e-01  2.3770262642713458e-01  1.0000000000000000e+00  9.7194306498006322e-01  9.4400588935309138e-01  9.1629621501619152e-01  8.8890842267112147e-01  8.6192473425327132e-01  8.3541631376415570e-01  8.0944427406846753e-01  7.8406059661220739e-01  7.5930897047832868e-01  7.3522555671330692e-01  7.1183968342245096e-01  6.8917447673513610e-01  6.6724743237781192e-01  6.4607093225947254e-01  6.2565271017028079e-01  6.0599627041934478e-01  5.8710126299342646e-01  5.6896381860628331e-01  5.5157684683072405e-01  5.3493030036526013e-01  5.1901140838830218e-01  5.0380488189999995e-01  4.8929309395129755e-01  4.7545623771916917e-01  4.6227246551580814e-01  4.4971801202903028e-01  4.3776730539452313e-01  4.2639307011258137e-01  4.1556642635811442e-01  4.0525699090756589e-01  3.9543298573040397e-01  3.8606136126692009e-01  3.7710794252077612e-01  3.6853760728414942e-01  3.6031450698233974e-01  3.5240234158676526e-01  3.4476470049018942e-01  3.3736548068204780e-01  3.3016939129562090e-01  3.2314254865101683e-01  3.1625315707126828e-01  3.0947225667447170e-01  3.0277449895116310e-01  2.9613888404340222e-01  2.8954936205060128e-01  2.8299516952280374e-01  2.7647075112172426e-01  2.6997511895092013e-01  2.6351054285166881e-01  2.5708055189215512e-01  1.0000000000000000e+00  9.7200716844579171e-01  9.4413448503934694e-01  9.1649008231850793e-01  8.8916873711311839e-01  8.6225307547388452e-01  8.3581467596433479e-01  8.0991507890940206e-01  7.8460670860194359e-01  7.5993371493091566e-01  7.3593274040810297e-01  7.1263361812865134e-01  6.9006000579860083e-01  6.6822996059582085e-01  6.4715645929641819e-01  6.2684786779539003e-01  6.0730836387766540e-01  5.8853831685423275e-01  5.7053462746891637e-01  5.5329103130627333e-01  5.3679836879243648e-01  5.2104482478155600e-01  5.0601614066463729e-01  4.9169580192978896e-01  4.7806520414878112e-01  4.6510380047097327e-01  4.5278923387943815e-01  4.4109745771317943e-01  4.3000284829112434e-01  4.1947831389371693e-01  4.0949540486822994e-01  4.0002443021864065e-01  3.9103458670141850e-01  3.8249410713512544e-01  3.7437043527191466e-01  3.6663043505189602e-01  3.5924064217726098e-01  3.5216756541993399e-01  3.4537804351680551e-01  3.3883966038318314e-01  3.3252121604325963e-01  3.2639324243855300e-01  3.2042854153811245e-01  3.1460270774224769e-01  3.0889457810659487e-01  3.0328653452987214e-01  2.9776456588017830e-01  2.9231799139511877e-01  2.8693875723117901e-01  2.8162025227927873e-01  2.7635564856411376e-01  1.0000000000000000e+00  9.7207454788052161e-01  9.4426965105533600e-01  9.1669385115031299e-01  8.8944233952947116e-01  8.6259816473254225e-01  8.3623333826470614e-01  8.1040984635390156e-01  7.8518057470742630e-01  7.6059015276512920e-01  7.3667572345882504e-01  7.1346764404299035e-01  6.9099012315644737e-01  6.6926179890528681e-01  6.4829626242129945e-01  6.2810253104619540e-01  6.0868547501916481e-01  5.9004620130398877e-01  5.7218239798249648e-01  5.5508864246490897e-01  5.3875667662616056e-01  5.2317565187288217e-01  5.0833234708104125e-01  4.9421136232252227e-01  4.8079529132377741e-01  4.6806487567496574e-01  4.5599914393743540e-01  4.4457553898398433e-01  4.3377003715137730e-01  4.2355726308613484e-01  4.1391060451514067e-01  4.0480233155575962e-01  3.9620372556568312e-01  3.8808522287029368e-01  3.8041657891563979e-01  3.7316705835970898e-01  3.6630565616419575e-01  3.5980135365256655e-01  3.5362341146034626e-01  3.4774169796347448e-01  3.4212704674727612e-01  3.3675162963736410e-01  3.3158932260330554e-01  3.2661603070756501e-01  3.2180992611530701e-01  3.1715154186819378e-01  3.1262365663831698e-01  3.0821090593331241e-01  3.0389906727159627e-01  2.9967399329345884e-01  2.9552020666133955e-01  1.0000000000000000e+00  9.7214492295241028e-01  9.4441082459349268e-01  9.1690667196187547e-01  8.8972808726172592e-01  8.6295855780936448e-01  8.3667054433661414e-01  8.1092649528216731e-01  7.8577977412412436e-01  7.6127550627507357e-01  7.3745135157352804e-01  7.1433820795942615e-01  6.9196085151379449e-01  6.7033851767091257e