<?xml version="1.0"?>
<VTKFile type="UnstructuredGrid"  version="0.1"  >
<UnstructuredGrid>
<Piece  NumberOfPoints="2601" NumberOfCells="5000">
<Points>
<DataArray  type="Float64"  NumberOfComponents="3"  format="ascii">0 0 0  0.02 0 0  0.04 0 0  0.06 0 0  0.08 0 0  0.1 0 0  0.12 0 0  0.14 0 0  0.16 0 0  0.18 0 0  0.2 0 0  0.22 0 0  0.24 0 0  0.26 0 0  0.28 0 0  0.3 0 0  0.32 0 0  0.34 0 0  0.36 0 0  0.38 0 0  0.4 0 0  0.42 0 0  0.44 0 0  0.46 0 0  0.48 0 0  0.5 0 0  0.52 0 0  0.54 0 0  0.5600000000000001 0 0  0.58 0 0  0.6 0 0  0.62 0 0  0.64 0 0  0.66 0 0  0.68 0 0  0.7 0 0  0.72 0 0  0.74 0 0  0.76 0 0  0.78 0 0  0.8 0 0  0.82 0 0  0.84 0 0  0.86 0 0  0.88 0 0  0.9 0 0  0.92 0 0  0.9399999999999999 0 0  0.96 0 0  0.98 0 0  1 0 0  0 0.02 0  0.02 0.02 0  0.04 0.02 0  0.06 0.02 0  0.08 0.02 0  0.1 0.02 0  0.12 0.02 0  0.14 0.02 0  0.16 0.02 0  0.18 0.02 0  0.2 0.02 0  0.22 0.02 0  0.24 0.02 0  0.26 0.02 0  0.28 0.02 0  0.3 0.02 0  0.32 0.02 0  0.34 0.02 0  0.36 0.02 0  0.38 0.02 0  0.4 0.02 0  0.42 0.02 0  0.44 0.02 0  0.46 0.02 0  0.48 0.02 0  0.5 0.02 0  0.52 0.02 0  0.54 0.02 0  0.5600000000000001 0.02 0  0.58 0.02 0  0.6 0.02 0  0.62 0.02 0  0.64 0.02 0  0.66 0.02 0  0.68 0.02 0  0.7 0.02 0  0.72 0.02 0  0.74 0.02 0  0.76 0.02 0  0.78 0.02 0  0.8 0.02 0  0.82 0.02 0  0.84 0.02 0  0.86 0.02 0  0.88 0.02 0  0.9 0.02 0  0.92 0.02 0  0.9399999999999999 0.02 0  0.96 0.02 0  0.98 0.02 0  1 0.02 0  0 0.04 0  0.02 0.04 0  0.04 0.04 0  0.06 0.04 0  0.08 0.04 0  0.1 0.04 0  0.12 0.04 0  0.14 0.04 0  0.16 0.04 0  0.18 0.04 0  0.2 0.04 0  0.22 0.04 0  0.24 0.04 0  0.26 0.04 0  0.28 0.04 0  0.3 0.04 0  0.32 0.04 0  0.34 0.04 0  0.36 0.04 0  0.38 0.04 0  0.4 0.04 0  0.42 0.04 0  0.44 0.04 0  0.46 0.04 0  0.48 0.04 0  0.5 0.04 0  0.52 0.04 0  0.54 0.04 0  0.5600000000000001 0.04 0  0.58 0.04 0  0.6 0.04 0  0.62 0.04 0  0.64 0.04 0  0.66 0.04 0  0.68 0.04 0  0.7 0.04 0  0.72 0.04 0  0.74 0.04 0  0.76 0.04 0  0.78 0.04 0  0.8 0.04 0  0.82 0.04 0  0.84 0.04 0  0.86 0.04 0  0.88 0.04 0  0.9 0.04 0  0.92 0.04 0  0.9399999999999999 0.04 0  0.96 0.04 0  0.98 0.04 0  1 0.04 0  0 0.06 0  0.02 0.06 0  0.04 0.06 0  0.06 0.06 0  0.08 0.06 0  0.1 0.06 0  0.12 0.06 0  0.14 0.06 0  0.16 0.06 0  0.18 0.06 0  0.2 0.06 0  0.22 0.06 0  0.24 0.06 0  0.26 0.06 0  0.28 0.06 0  0.3 0.06 0  0.32 0.06 0  0.34 0.06 0  0.36 0.06 0  0.38 0.06 0  0.4 0.06 0  0.42 0.06 0  0.44 0.06 0  0.46 0.06 0  0.48 0.06 0  0.5 0.06 0  0.52 0.06 0  0.54 0.06 0  0.5600000000000001 0.06 0  0.58 0.06 0  0.6 0.06 0  0.62 0.06 0  0.64 0.06 0  0.66 0.06 0  0.68 0.06 0  0.7 0.06 0  0.72 0.06 0  0.74 0.06 0  0.76 0.06 0  0.78 0.06 0  0.8 0.06 0  0.82 0.06 0  0.84 0.06 0  0.86 0.06 0  0.88 0.06 0  0.9 0.06 0  0.92 0.06 0  0.9399999999999999 0.06 0  0.96 0.06 0  0.98 0.06 0  1 0.06 0  0 0.08 0  0.02 0.08 0  0.04 0.08 0  0.06 0.08 0  0.08 0.08 0  0.1 0.08 0  0.12 0.08 0  0.14 0.08 0  0.16 0.08 0  0.18 0.08 0  0.2 0.08 0  0.22 0.08 0  0.24 0.08 0  0.26 0.08 0  0.28 0.08 0  0.3 0.08 0  0.32 0.08 0  0.34 0.08 0  0.36 0.08 0  0.38 0.08 0  0.4 0.08 0  0.42 0.08 0  0.44 0.08 0  0.46 0.08 0  0.48 0.08 0  0.5 0.08 0  0.52 0.08 0  0.54 0.08 0  0.5600000000000001 0.08 0  0.58 0.08 0  0.6 0.08 0  0.62 0.08 0  0.64 0.08 0  0.66 0.08 0  0.68 0.08 0  0.7 0.08 0  0.72 0.08 0  0.74 0.08 0  0.76 0.08 0  0.78 0.08 0  0.8 0.08 0  0.82 0.08 0  0.84 0.08 0  0.86 0.08 0  0.88 0.08 0  0.9 0.08 0  0.92 0.08 0  0.9399999999999999 0.08 0  0.96 0.08 0  0.98 0.08 0  1 0.08 0  0 0.1 0  0.02 0.1 0  0.04 0.1 0  0.06 0.1 0  0.08 0.1 0  0.1 0.1 0  0.12 0.1 0  0.14 0.1 0  0.16 0.1 0  0.18 0.1 0  0.2 0.1 0  0.22 0.1 0  0.24 0.1 0  0.26 0.1 0  0.28 0.1 0  0.3 0.1 0  0.32 0.1 0  0.34 0.1 0  0.36 0.1 0  0.38 0.1 0  0.4 0.1 0  0.42 0.1 0  0.44 0.1 0  0.46 0.1 0  0.48 0.1 0  0.5 0.1 0  0.52 0.1 0  0.54 0.1 0  0.5600000000000001 0.1 0  0.58 0.1 0  0.6 0.1 0  0.62 0.1 0  0.64 0.1 0  0.66 0.1 0  0.68 0.1 0  0.7 0.1 0  0.72 0.1 0  0.74 0.1 0  0.76 0.1 0  0.78 0.1 0  0.8 0.1 0  0.82 0.1 0  0.84 0.1 0  0.86 0.1 0  0.88 0.1 0  0.9 0.1 0  0.92 0.1 0  0.9399999999999999 0.1 0  0.96 0.1 0  0.98 0.1 0  1 0.1 0  0 0.12 0  0.02 0.12 0  0.04 0.12 0  0.06 0.12 0  0.08 0.12 0  0.1 0.12 0  0.12 0.12 0  0.14 0.12 0  0.16 0.12 0  0.18 0.12 0  0.2 0.12 0  0.22 0.12 0  0.24 0.12 0  0.26 0.12 0  0.28 0.12 0  0.3 0.12 0  0.32 0.12 0  0.34 0.12 0  0.36 0.12 0  0.38 0.12 0  0.4 0.12 0  0.42 0.12 0  0.44 0.12 0  0.46 0.12 0  0.48 0.12 0  0.5 0.12 0  0.52 0.12 0  0.54 0.12 0  0.5600000000000001 0.12 0  0.58 0.12 0  0.6 0.12 0  0.62 0.12 0  0.64 0.12 0  0.66 0.12 0  0.68 0.12 0  0.7 0.12 0  0.72 0.12 0  0.74 0.12 0  0.76 0.12 0  0.78 0.12 0  0.8 0.12 0  0.82 0.12 0  0.84 0.12 0  0.86 0.12 0  0.88 0.12 0  0.9 0.12 0  0.92 0.12 0  0.9399999999999999 0.12 0  0.96 0.12 0  0.98 0.12 0  1 0.12 0  0 0.14 0  0.02 0.14 0  0.04 0.14 0  0.06 0.14 0  0.08 0.14 0  0.1 0.14 0  0.12 0.14 0  0.14 0.14 0  0.16 0.14 0  0.18 0.14 0  0.2 0.14 0  0.22 0.14 0  0.24 0.14 0  0.26 0.14 0  0.28 0.14 0  0.3 0.14 0  0.32 0.14 0  0.34 0.14 0  0.36 0.14 0  0.38 0.14 0  0.4 0.14 0  0.42 0.14 0  0.44 0.14 0  0.46 0.14 0  0.48 0.14 0  0.5 0.14 0  0.52 0.14 0  0.54 0.14 0  0.5600000000000001 0.14 0  0.58 0.14 0  0.6 0.14 0  0.62 0.14 0  0.64 0.14 0  0.66 0.14 0  0.68 0.14 0  0.7 0.14 0  0.72 0.14 0  0.74 0.14 0  0.76 0.14 0  0.78 0.14 0  0.8 0.14 0  0.82 0.14 0  0.84 0.14 0  0.86 0.14 0  0.88 0.14 0  0.9 0.14 0  0.92 0.14 0  0.9399999999999999 0.14 0  0.96 0.14 0  0.98 0.14 0  1 0.14 0  0 0.16 0  0.02 0.16 0  0.04 0.16 0  0.06 0.16 0  0.08 0.16 0  0.1 0.16 0  0.12 0.16 0  0.14 0.16 0  0.16 0.16 0  0.18 0.16 0  0.2 0.16 0  0.22 0.16 0  0.24 0.16 0  0.26 0.16 0  0.28 0.16 0  0.3 0.16 0  0.32 0.16 0  0.34 0.16 0  0.36 0.16 0  0.38 0.16 0  0.4 0.16 0  0.42 0.16 0  0.44 0.16 0  0.46 0.16 0  0.48 0.16 0  0.5 0.16 0  0.52 0.16 0  0.54 0.16 0  0.5600000000000001 0.16 0  0.58 0.16 0  0.6 0.16 0  0.62 0.16 0  0.64 0.16 0  0.66 0.16 0  0.68 0.16 0  0.7 0.16 0  0.72 0.16 0  0.74 0.16 0  0.76 0.16 0  0.78 0.16 0  0.8 0.16 0  0.82 0.16 0  0.84 0.16 0  0.86 0.16 0  0.88 0.16 0  0.9 0.16 0  0.92 0.16 0  0.9399999999999999 0.16 0  0.96 0.16 0  0.98 0.16 0  1 0.16 0  0 0.18 0  0.02 0.18 0  0.04 0.18 0  0.06 0.18 0  0.08 0.18 0  0.1 0.18 0  0.12 0.18 0  0.14 0.18 0  0.16 0.18 0  0.18 0.18 0  0.2 0.18 0  0.22 0.18 0  0.24 0.18 0  0.26 0.18 0  0.28 0.18 0  0.3 0.18 0  0.32 0.18 0  0.34 0.18 0  0.36 0.18 0  0.38 0.18 0  0.4 0.18 0  0.42 0.18 0  0.44 0.18 0  0.46 0.18 0  0.48 0.18 0  0.5 0.18 0  0.52 0.18 0  0.54 0.18 0  0.5600000000000001 0.18 0  0.58 0.18 0  0.6 0.18 0  0.62 0.18 0  0.64 0.18 0  0.66 0.18 0  0.68 0.18 0  0.7 0.18 0  0.72 0.18 0  0.74 0.18 0  0.76 0.18 0  0.78 0.18 0  0.8 0.18 0  0.82 0.18 0  0.84 0.18 0  0.86 0.18 0  0.88 0.18 0  0.9 0.18 0  0.92 0.18 0  0.9399999999999999 0.18 0  0.96 0.18 0  0.98 0.18 0  1 0.18 0  0 0.2 0  0.02 0.2 0  0.04 0.2 0  0.06 0.2 0  0.08 0.2 0  0.1 0.2 0  0.12 0.2 0  0.14 0.2 0  0.16 0.2 0  0.18 0.2 0  0.2 0.2 0  0.22 0.2 0  0.24 0.2 0  0.26 0.2 0  0.28 0.2 0  0.3 0.2 0  0.32 0.2 0  0.34 0.2 0  0.36 0.2 0  0.38 0.2 0  0.4 0.2 0  0.42 0.2 0  0.44 0.2 0  0.46 0.2 0  0.48 0.2 0  0.5 0.2 0  0.52 0.2 0  0.54 0.2 0  0.5600000000000001 0.2 0  0.58 0.2 0  0.6 0.2 0  0.62 0.2 0  0.64 0.2 0  0.66 0.2 0  0.68 0.2 0  0.7 0.2 0  0.72 0.2 0  0.74 0.2 0  0.76 0.2 0  0.78 0.2 0  0.8 0.2 0  0.82 0.2 0  0.84 0.2 0  0.86 0.2 0  0.88 0.2 0  0.9 0.2 0  0.92 0.2 0  0.9399999999999999 0.2 0  0.96 0.2 0  0.98 0.2 0  1 0.2 0  0 0.22 0  0.02 0.22 0  0.04 0.22 0  0.06 0.22 0  0.08 0.22 0  0.1 0.22 0  0.12 0.22 0  0.14 0.22 0  0.16 0.22 0  0.18 0.22 0  0.2 0.22 0  0.22 0.22 0  0.24 0.22 0  0.26 0.22 0  0.28 0.22 0  0.3 0.22 0  0.32 0.22 0  0.34 0.22 0  0.36 0.22 0  0.38 0.22 0  0.4 0.22 0  0.42 0.22 0  0.44 0.22 0  0.46 0.22 0  0.48 0.22 0  0.5 0.22 0  0.52 0.22 0  0.54 0.22 0  0.5600000000000001 0.22 0  0.58 0.22 0  0.6 0.22 0  0.62 0.22 0  0.64 0.22 0  0.66 0.22 0  0.68 0.22 0  0.7 0.22 0  0.72 0.22 0  0.74 0.22 0  0.76 0.22 0  0.78 0.22 0  0.8 0.22 0  0.82 0.22 0  0.84 0.22 0  0.86 0.22 0  0.88 0.22 0  0.9 0.22 0  0.92 0.22 0  0.9399999999999999 0.22 0  0.96 0.22 0  0.98 0.22 0  1 0.22 0  0 0.24 0  0.02 0.24 0  0.04 0.24 0  0.06 0.24 0  0.08 0.24 0  0.1 0.24 0  0.12 0.24 0  0.14 0.24 0  0.16 0.24 0  0.18 0.24 0  0.2 0.24 0  0.22 0.24 0  0.24 0.24 0  0.26 0.24 0  0.28 0.24 0  0.3 0.24 0  0.32 0.24 0  0.34 0.24 0  0.36 0.24 0  0.38 0.24 0  0.4 0.24 0  0.42 0.24 0  0.44 0.24 0  0.46 0.24 0  0.48 0.24 0  0.5 0.24 0  0.52 0.24 0  0.54 0.24 0  0.5600000000000001 0.24 0  0.58 0.24 0  0.6 0.24 0  0.62 0.24 0  0.64 0.24 0  0.66 0.24 0  0.68 0.24 0  0.7 0.24 0  0.72 0.24 0  0.74 0.24 0  0.76 0.24 0  0.78 0.24 0  0.8 0.24 0  0.82 0.24 0  0.84 0.24 0  0.86 0.24 0  0.88 0.24 0  0.9 0.24 0  0.92 0.24 0  0.9399999999999999 0.24 0  0.96 0.24 0  0.98 0.24 0  1 0.24 0  0 0.26 0  0.02 0.26 0  0.04 0.26 0  0.06 0.26 0  0.08 0.26 0  0.1 0.26 0  0.12 0.26 0  0.14 0.26 0  0.16 0.26 0  0.18 0.26 0  0.2 0.26 0  0.22 0.26 0  0.24 0.26 0  0.26 0.26 0  0.28 0.26 0  0.3 0.26 0  0.32 0.26 0  0.34 0.26 0  0.36 0.26 0  0.38 0.26 0  0.4 0.26 0  0.42 0.26 0  0.44 0.26 0  0.46 0.26 0  0.48 0.26 0  0.5 0.26 0  0.52 0.26 0  0.54 0.26 0  0.5600000000000001 0.26 0  0.58 0.26 0  0.6 0.26 0  0.62 0.26 0  0.64 0.26 0  0.66 0.26 0  0.68 0.26 0  0.7 0.26 0  0.72 0.26 0  0.74 0.26 0  0.76 0.26 0  0.78 0.26 0  0.8 0.26 0  0.82 0.26 0  0.84 0.26 0  0.86 0.26 0  0.88 0.26 0  0.9 0.26 0  0.92 0.26 0  0.9399999999999999 0.26 0  0.96 0.26 0  0.98 0.26 0  1 0.26 0  0 0.28 0  0.02 0.28 0  0.04 0.28 0  0.06 0.28 0  0.08 0.28 0  0.1 0.28 0  0.12 0.28 0  0.14 0.28 0  0.16 0.28 0  0.18 0.28 0  0.2 0.28 0  0.22 0.28 0  0.24 0.28 0  0.26 0.28 0  0.28 0.28 0  0.3 0.28 0  0.32 0.28 0  0.34 0.28 0  0.36 0.28 0  0.38 0.28 0  0.4 0.28 0  0.42 0.28 0  0.44 0.28 0  0.46 0.28 0  0.48 0.28 0  0.5 0.28 0  0.52 0.28 0  0.54 0.28 0  0.5600000000000001 0.28 0  0.58 0.28 0  0.6 0.28 0  0.62 0.28 0  0.64 0.28 0  0.66 0.28 0  0.68 0.28 0  0.7 0.28 0  0.72 0.28 0  0.74 0.28 0  0.76 0.28 0  0.78 0.28 0  0.8 0.28 0  0.82 0.28 0  0.84 0.28 0  0.86 0.28
[...]
<PointData  Scalars="f_17"> 
<DataArray  type="Float64"  Name="f_17"  format="ascii">1.0000000000000000e+00  9.8863782973177416e-01  9.7726887150903208e-01  9.6588591899054377e-01  9.5448136083663049e-01  9.4304713776330396e-01  9.3157470567088074e-01  9.2005499961164294e-01  9.0847839714296086e-01  8.9683468047237869e-01  8.8511299700287716e-01  8.7330181792312722e-01  8.6138889447401357e-01  8.4936121148782806e-01  8.3720493774741600e-01  8.2490537265007613e-01  8.1244688858367742e-01  7.9981286832747844e-01  7.8698563667358135e-01  7.7394638532159465e-01  7.6067508992212229e-01  7.4715041792518122e-01  7.3334962561591954e-01  7.1924844237649499e-01  7.0482093977899307e-01  6.9003938256193742e-01  6.7487405783421706e-01  6.5929307793285996e-01  6.4326215116206176e-01  6.2674431305731670e-01  6.0969960870291673e-01  5.9208471376914396e-01  5.7385247801009520e-01  5.5495136949674673e-01  5.3532479011870837e-01  5.1491022171867096e-01  4.9363814576731896e-01  4.7143065466395451e-01  4.4819963429259396e-01  4.2384433603556804e-01  3.9824805477538699e-01  3.7127345394146971e-01  3.4275576018711507e-01  3.1249243544553712e-01  2.8022665148092485e-01  2.4561894111190000e-01  2.0819374008665345e-01  1.6722469048292943e-01  1.2144405080061789e-01  6.8154923107332677e-02  0.0000000000000000e+00  1.0000000000000000e+00  9.8864149294292125e-01  9.7727618833797525e-01  9.6589691577085346e-01  9.5449608542264031e-01  9.4306565657166186e-01  9.3159710334141754e-01  9.2008137939606049e-01  9.0850888159108101e-01  8.9686941231495176e-01  8.8515214021255140e-01  8.7334555896024502e-01  8.6143744373457265e-01  8.4941480497807098e-01  8.3726383901618739e-01  8.2496987501751518e-01  8.1251731771362579e-01  7.9988958520177778e-01  7.8706904103982678e-01  7.7403691970271626e-01  7.6077324429742976e-01  7.4725673521963432e-01  7.3346470816925713e-01  7.1937295960909509e-01  7.0495563733051614e-01  6.9018509325699062e-01  6.7503171493362457e-01  6.5946373126992486e-01  6.4344698695548919e-01  6.2694467845846102e-01  6.0991704250821133e-01  5.9232098526029264e-01  5.7410963665506531e-01  5.5523180938203887e-01  5.3563133469750657e-01  5.1524623710288275e-01  4.9400769497465608e-01  4.7183871204769179e-01  4.4865239086776698e-01  4.2434964653714097e-01  3.9881611418536983e-01  3.7191786272049310e-01  3.4349528562863751e-01  3.1335411046900075e-01  2.8125168633302555e-01  2.4687527807484269e-01  2.0980667274618117e-01  1.6946481040831538e-01  1.2502583903914152e-01  7.5408490288780244e-02  1.9998666693333080e-02  1.0000000000000000e+00  9.8865243615048770e-01  9.7729811522195842e-01  9.6592991981284060e-01  9.5454031319043264e-01  9.4312130767323044e-01  9.3166443129899201e-01  9.2016069324225791e-01  9.0860054802841816e-01  8.9697385838245125e-01  8.8526985646179468e-01  8.7347710317524585e-01  8.6158344525107078e-01  8.4957596967605287e-01  8.3744095507832694e-01  8.2516381956783025e-01  8.1272906447653381e-01  8.0012021335345751e-01  7.8731974546318173e-01  7.7430902290659542e-01  7.6106821032315719e-01  7.4757618593736985e-01  7.3381044246874794e-01  7.1974697612147076e-01  7.0536016149029124e-01  6.9062260974082634e-01  6.7550500681514325e-01  6.5997592763726087e-01  6.4400162129286587e-01  6.2754576085758507e-01  6.1056914984354715e-01  5.9302937497717467e-01  5.7488039200284635e-01  5.5607202712696091e-01  5.3654937113985701e-01  5.1625203554270471e-01  4.9511322922614537e-01  4.7305859901553132e-01  4.5000475569104809e-01  4.2585737602778312e-01  4.0050872717490105e-01  3.7383439833757137e-01  3.4568894604638506e-01  3.1590008181639195e-01  2.8426104370100802e-01  2.5052122808967758e-01  2.1437714852308801e-01  1.7547299419168905e-01  1.3344343289623953e-01  8.8098244797261749e-02  3.9989334186634161e-02  1.0000000000000000e+00  9.8867061875275641e-01  9.7733455863485541e-01  9.6598478480716554e-01  9.5461384530483384e-01  9.4321383904238376e-01  9.3177638293949550e-01  9.2029257801500808e-01  9.0875297432768676e-01  8.9714753458390617e-01  8.8546559617920295e-01  8.7369583139876061e-01  8.6182620546397426e-01  8.4984393207244746e-01  8.3773542603328865e-01  8.2548625254577113e-01  8.1308107260492635e-01  8.0050358393990517e-01  7.8773645679686155e-01  7.7476126376400489e-01  7.6155840269754149e-01  7.4810701163755622e-01  7.3438487439480615e-01  7.2036831523322964e-01  7.0603208075609136e-01  6.9134920671003963e-01  6.7629086692980001e-01  6.6082620102955980e-01  6.4492211666956389e-01  6.2854306124145065e-01  6.1165075656247347e-01  5.9420388856799411e-01  5.7615774194190983e-01  5.5746376699902400e-01  5.3806906277995226e-01  5.1791575607536600e-01  4.9694025083385518e-01  4.7507231615597267e-01  4.5223397433183044e-01  4.2833814485125543e-01  4.0328700072222473e-01  3.7697001179315520e-01  3.4926171568416359e-01  3.2001944209888200e-01  2.8908169211801271e-01  2.5626904078403362e-01  2.2139217562448035e-01  1.8427773805185657e-01  1.4483428804486526e-01  1.0319564865450992e-01  5.9964006479444588e-02  1.0000000000000000e+00  9.8869596234916080e-01  9.7738535776865465e-01  9.6606126568521666e-01  9.5471635095875484e-01  9.4334283219597581e-01  9.3193244948775289e-01  9.2047643130252566e-01  9.0896546033500880e-01  8.9738963810713235e-01  8.8573844809433266e-01  8.7400071712140281e-01  8.6216457474092356e-01  8.5021741027291531e-01  8.3814582714489394e-01  8.2593559412533601e-01  8.1357159298877590e-01  8.0103776208549071e-01  7.8831703521065333e-01  7.7539127507426875e-01  7.6224120056084210e-01  7.4884630683254072e-01  7.3518477716665775e-01  7.2123338522141756e-01  7.0696738618627142e-01  6.9236039498490187e-01  6.7738424935065811e-01  6.6200885517274410e-01  6.4620201100338626e-01  6.2992920800703944e-01  6.1315340090964432e-01  5.9583474466263109e-01  5.7793029058239831e-01  5.5939363470642212e-01  5.4017451014017404e-01  5.2021831452002132e-01  4.9946556394313130e-01  4.7785126694811692e-01  4.5530421863605541e-01  4.3174623030977061e-01  4.0709134303051686e-01  3.8124514196988996e-01  3.5410442722554997e-01  3.2555777317865742e-01  2.9548804721155875e-01  2.6377897042589460e-01  2.3032956892965914e-01  1.9508297772772001e-01  1.5807831057458696e-01  1.1953033908818941e-01  7.9914693969172695e-02  1.0000000000000000e+00  9.8872835474593201e-01  9.7745028638558362e-01  9.6615902009716881e-01  9.5484736931189174e-01  9.4350770481100310e-01  9.3213192334406147e-01  9.2071141552394253e-01  9.0923703278795143e-01  8.9769905322015831e-01  8.8608714601933525e-01  8.7439033437806168e-01  8.6259695651516255e-01  8.5069462457637979e-01  8.3867018108657132e-01  8.2650965259991771e-01  8.1419820015153666e-01  8.0172006606336832e-01  7.8905851659781479e-01  7.7619577988292787e-01  7.6311297845113213e-01  7.4979005563773038e-01  7.3620569497361543e-01  7.2233723157664131e-01  7.0816055439599923e-01  6.9364999799238525e-01  6.7877822234354190e-01  6.6351607895247677e-01  6.4783246131135841e-01  6.3169413755355797e-01  6.1506556293998804e-01  5.9790866973039913e-01  5.8018263208702969e-01  5.6184360412632262e-01  5.4284443038850771e-01  5.2313433038373358e-01  5.0265856345566706e-01  4.8135808865427993e-01  4.5916924955736621e-01  4.3602354113458841e-01  4.1184756365916253e-01  3.8656335241520351e-01  3.6008941631424574e-01  3.3234306147383558e-01  3.0324496671313794e-01  2.7272755382978381e-01  2.4074938961005898e-01  2.0731823884519288e-01  1.7252409605108882e-01  1.3657748633975428e-01  9.9833416646828155e-02  1.0000000000000000e+00  9.8876765180651094e-01  9.7752905488678410e-01  9.6627761079185004e-01  9.5500631248512302e-01  9.4370771452128654e-01  9.3237390279157950e-01  9.2099646363260501e-01  9.0956645210612586e-01  8.9807435925968637e-01  8.8651007817172867e-01  8.7486286857272078e-01  8.6312131981746110e-01  8.5127331196405120e-01  8.3930597469212898e-01  8.2720564376658900e-01  8.1495781472283135e-01  8.0254709341510999e-01  7.8995714303042774e-01  7.7717062712628904e-01  7.6416914820134096e-01  7.5093318125366493e-01  7.3744200172293595e-01  7.2367360715139972e-01  7.0960463183773903e-01  6.9521025370273670e-01  6.8046409254534235e-01  6.6533809885735717e-01  6.4980243240883417e-01  6.3382532995377949e-01  6.1737296169966949e-01  6.0040927673515210e-01  5.8289583857844973e-01  5.6479165365093320e-01  5.4605299820652298e-01  5.2663325371573799e-01  5.0648276796667102e-01  4.8554877088555187e-01  4.6377539295995157e-01  4.4110386431726012e-01  4.1747302023794985e-01  3.9282031309925630e-01  3.6708364273386307e-01  3.4020447726880554e-01  3.1213294252876811e-01  2.8283576491346746e-01  2.5230800485206695e-01  2.2058903124175258e-01  1.8778142458006689e-01  1.5406751838346514e-01  1.1971220728891938e-01  1.0000000000000000e+00  9.8881367877821058e-01  9.7762131250407736e-01  9.6641650859494854e-01  9.5519246942289182e-01  9.4394196378482087e-01  9.3265729797941765e-01  9.2133028632384817e-01  9.0995222094384087e-01  8.9851384067018103e-01  8.8700529887061386e-01  8.7541613003876528e-01  8.6373521495158267e-01  8.5195074419459660e-01  8.4005017984033503e-01  8.2802021504971035e-01  8.1584673134929608e-01  8.0351475331946820e-01  7.9100840040978837e-01  7.7831083557962888e-01  7.6540421044506612e-01  7.5226960659963793e-01  7.3888697276963256e-01  7.2523505746903083e-01  7.1129133684213430e-01  6.9703193743405745e-01  6.8243155372682385e-01  6.6746336044588661e-01  6.5209891991468161e-01  6.3630808516746762e-01  6.2005890020442400e-01  6.0331749980975558e-01  5.8604801293667974e-01  5.6821247606826830e-01  5.4977076660368718e-01  5.3068057181350470e-01  5.1089741717078563e-01  4.9037479023157166e-01  4.6906441460213338e-01  4.4691675544716142e-01  4.2388187660358473e-01  3.9991082277043360e-01  3.7495776953874771e-01  3.4898326340073338e-01  3.2195894014506193e-01  2.9387410322573398e-01  2.6474433824740273e-01  2.3462172111039165e-01  2.0360488295685217e-01  1.7184516373315623e-01  1.3954311464423649e-01  1.0000000000000000e+00  9.8886623155646258e-01  9.7772664969320700e-01  9.6657509588771451e-01  9.5540501050275750e-01  9.4420940571104306e-01  9.3298083807253829e-01  9.2171138062710867e-01  9.1039259436329112e-01  8.9901549892293275e-01  8.8757054239940747e-01  8.7604757008376832e-01  8.6443579200879317e-01  8.5272374913578430e-01  8.4089927802374520e-01  8.2894947381568806e-01  8.1686065137296771e-01  8.0461830438659898e-01  7.9220706229570892e-01  7.7961064484932074e-01  7.6681181416105337e-01  7.5379232413054220e-01  7.4053286714540822e-01  7.2701301804057006e-01  7.1321117538763534e-01  6.9910450033045091e-01  6.8466885339412553e-01  6.6987873000326226e-01  6.5470719589265980e-01  6.3912582424032438e-01  6.2310463728417886e-01  6.0661205652322647e-01  5.8961486752646997e-01  5.7207820812753774e-01  5.5396559271996337e-01  5.3523899097265437e-01  5.1585898721292966e-01  4.9578505782472748e-01  4.7497601930075184e-01  4.5339072011048287e-01  4.3098907593876284e-01  4.0773357935227650e-01  3.8359144735576267e-01  3.5853759215865605e-01  3.3255858696895857e-01  3.0565770370456008e-01  2.7786085096000451e-01  2.4922275271016014e-01  2.1983194324865707e-01  1.8981227261177186e-01  1.5931820661424598e-01  1.0000000000000000e+00  9.8892507802178786e-01  9.7784460077198831e-01  9.6675267054068514e-01  9.5564299280522491e-01  9.4450885074311730e-01  9.3334307944890793e-01  9.2213803974353603e-01  9.1088559146352310e-01  8.9957706611735322e-01  8.8820323879676011e-01  8.7675429923112802e-01  8.6521982187405078e-01  8.5358873491263443e-01  8.4184928809309101e-01  8.2998901926126778e-01  8.1799471952507341e-01  8.0585239695861455e-01  7.9354723878708233e-01  7.8106357201947285e-01  7.6838482253641693e-01  7.5549347269733502e-01  7.4237101761097546e-01  7.2899792032479660e-01  7.1535356634325276e-01  7.0141621809906418e-01  6.8716297029715845e-01  6.7256970745886258e-01  6.5761106555616389e-01  6.4226040040053556e-01  6.2648976651728383e-01  6.1026991170302813e-01  5.9357029447691456e-01  5.7635913439017616e-01  5.5860350890678179e-01  5.4026951562732528e-01  5.2132252537184331e-01  5.0172756045218725e-01  4.8144984364215648e-01  4.6045557684543825e-01  4.3871302339626123e-01  4.1619398173511246e-01  3.9287574516483575e-01  3.6874363155208262e-01  3.4379411962352019e-01  3.1803851767546260e-01  2.9150688453434387e-01  2.6425160331477282e-01  2.3634961209303823e-01  2.0790197705929489e-01  1.7902957342582418e-01  1.0000000000000000e+00  9.8898995948524471e-01  9.7797464680889223e-01  9.6694845026185539e-01  9.5590536596747755e-01  9.4483897409281437e-01  9.3374241481833020e-01  9.2260836397824120e-01  9.1142900828424755e-01  9.0019602004724575e-01  8.8890053131461055e-01  8.7753310734478318e-01  8.6608371934653594e-01  8.5454171641784071e-01  8.4289579662963765e-01  8.3113397721384186e-01  8.1924356383405583e-01  8.0721111894328157e-01  7.9502242926774969e-01  7.8266247250265497e-01  7.7011538336806562e-01  7.5736441925665066e-01  7.4439192581603331e-01  7.3117930295663425e-01  7.1770697197300437e-01  7.0395434472910023e-01  6.8989979620733888e-01  6.7552064218642527e-01  6.6079312443197546e-01  6.4569240660721583e-01  6.3019258520417942e-01  6.1426672124346304e-01  5.9788690039945691e-01  5.8102433170820578e-01  5.6364949825715760e-01  5.4573237739743707e-01  5.2724275319126523e-01  5.0815065004551108e-01  4.8842692359479556e-01  4.6804405222927514e-01  4.4697717870965198e-01  4.2520545314126201e-01  4.0271372105937631e-01  3.7949457541017340e-01  3.5555073752459521e-01  3.3089763698269331e-01  3.0556591501476321e-01  2.7960338918946842e-01  2.5307583425260366e-01  2.2606585772344800e-01  1.9866933079506122e-01  1.0000000000000000e+00  9.8906059224465481e-01  9.7811621874559684e-01  9.6716157731329711e-01  9.5619097854542401e-01  9.4519832382520685e-01  9.3417708313351111e-01  9.2312027260906782e-01  9.1202043179363568e-01  9.0086960050277809e-01  8.8965929526855114e-01  8.7838048530790747e-01  8.6702356798051194e-01  8.5557834371251740e-01  8.4403399037957827e-01  8.3237903716410244e-01  8.2060133792996337e-01  8.0868804419450224e-01  7.9662557782509391e-01  7.8439960364902328e-01  7.7199500224498363e-01  7.5939584328751297e-01  7.4658535994899755e-01  7.3354592503645633e-01  7.2025902976371337e-01  7.0670526634884390e-01  6.9286431600112564e-01  6.7871494434600921e-01  6.6423500696211601e-01  6.4940146851045699e-01  6.3419043997122881e-01  6.1857723982552570e-01  6.0253648669378046e-01  5.8604223303879044e-01  5.6906815211982986e-01  5.5158779347635334e-01  5.3357492578449106e-01  5.1500398978359674e-01  4.9585068767223373e-01  4.7609273804808699e-01  4.5571082556012293e-01  4.3468976942337173e-01  4.1301992104325869e-01  3.9069877317300189e-01  3.6773271566147159e-01  3.4413880181976475e-01  3.1994629650646728e-01  2.9519767687572512e-01  2.6994868476770784e-01  2.4426704419602219e-01  2.1822962308086932e-01  1.0000000000000000e+00  9.8913666924148447e-01  9.7826870072574335e-01  9.6739112354485679e-01  9.5649858480682792e-01  9.4558532948943685e-01  9.3464518016204867e-01  9.2367151653059953e-01  9.1265725476499171e-01  9.0159482657398426e-01  8.9047615800063418e-01  8.7929264792181772e-01  8.6803514624886191e-01  8.5669393184357745e-01  8.4525869018594957e-01  8.3371849085765304e-01  8.2206176494097660e-01  8.1027628247766026e-01  7.9834913018907927e-01  7.8626668973134350e-01  7.7401461685024775e-01  7.6157782191674106e-01  7.4894045247010699e-01  7.3608587858155461e-01  7.2299668208563350e-01  7.0965465102362413e-01  6.9604078101768418e-01  6.8213528576648974e-01  6.6791761944574801e-01  6.5336651453764139e-01  6.3846003953274499e-01  6.2317568207847263e-01  6.0749046451924849e-01  5.9138110040435010e-01  5.7482420242377463e-01  5.5779655431587249e-01  5.4027546143113026e-01  5.2223919654756890e-01  5.0366755870018931e-01  4.8454256235951570e-01  4.6484927096520195e-01  4.4457678072902196e-01  4.2371934536901518e-01  4.0227760738002066e-01  3.8025986452123944e-01  3.5768325157886527e-01  3.3457466218500659e-01  3.1097118663962570e-01  2.8691982239152847e-01  2.6247625426127985e-01  2.3770262642713458e-01  1.0000000000000000e+00  9.8921786180339810e-01  9.7843143359682616e-01  9.6763609569044162e-01  9.5682685187733263e-01  9.4599831119202071e-01  9.3514466958857645e-01  9.2425969151278420e-01  9.1333669134818951e-01  9.0236851472338853e-01  8.9134751967787496e-01  8.8026555769664472e-01  8.6911395464018615e-01  8.5788349161715116e-01  8.4656438587300853e-01  8.3514627180049106e-01  8.2361818221828387e-01  8.1196853011510894e-01  8.0018509111959579e-01  7.8825498703508068e-01  7.7616467087655061e-01  7.6389991396892076e-01  7.5144579581744197e-01  7.3878669764920701e-01  7.2590630075793827e-01  7.1278759107259426e-01  6.9941287172578848e-01  6.8576378583430375e-01  6.7182135223639194e-01  6.5756601757501465e-01  6.4297772888768667e-01  6.2803603177308576e-01  6.1272020025340890e-01  5.9700940562283744e-01  5.8088293281734715e-01  5.6432045405760045e-01  5.4730237052003494e-01  5.2981023327394738e-01  5.1182725420440978e-01  4.9333891541833297e-01  4.7433368073985166e-01  4.5480380413422528e-01  4.3474621594084695e-01  4.1416344757038265e-01  3.9306452866794528e-01  3.7146575948434968e-01  3.4939123047560544e-01  3.2687294053618859e-01  3.0395036848104923e-01  2.8066939397617413e-01  2.5708055189215512e-01  1.0000000000000000e+00  9.8930382145569662e-01  9.7860371855016914e-01  9.6789544087155766e-01  9.5717436716184234e-01  9.4643548901112851e-01  9.3567339451944131e-01  9.2488225191788953e-01  9.1405579314753194e-01  9.0318729740310177e-01  8.9226957466023704e-01  8.8129494921957829e-01  8.7025524331964210e-01  8.5914176089349759e-01  8.4794527157303712e-01  8.3665599508017707e-01  8.2526358618822560e-01  8.1375712049069648e-01  8.0212508128137194e-01  7.9035534793103246e-01  7.7843518624642272e-01  7.6635124141954147e-01  7.5408953432507764e-01  7.4163546210619380e-01  7.2897380421045888e-01  7.1608873530575745e-01  7.0296384682852997e-01  6.8958217930208121e-01  6.7592626801888389e-01  6.6197820521406026e-01  6.4771972246990450e-01  6.3313229777831037e-01  6.1819729243137866e-01  6.0289612367144496e-01  5.8721047973906015e-01  5.7112258449174480e-01  5.5461551894009486e-01  5.3767360658199548e-01  5.2028286791676959e-01  5.0243154646744659e-01  4.8411070339340562e-01  4.6531486964905616e-01  4.4604273305498549e-01  4.2629782241390263e-01  4.0608913260132040e-01  3.8543161551905919e-01  3.6434644606340316e-01  3.4286096614822714e-01  3.2100822098157261e-01  2.9882603672262353e-01  2.7635564856411376e-01  1.0000000000000000e+00  9.8939418178454808e-01  9.7878482086395979e-01  9.6816805225382896e-01  9.5753964596622898e-01  9.4689499265437760e-01  9.3622908926807535e-01  9.2553652472719938e-01  9.1481146562776661e-01  9.0404764200480536e-01  8.9323833318880386e-01  8.8237635380844037e-01  8.7145404001214999e-01  8.6046323600570096e-01  8.4939528103322337e-01  8.3824099696622922e-01  8.2699067671044924e-01  8.1563407369548901e-01  8.0416039277931595e-01  7.9255828298083730e-01  7.8081583255202236e-01  7.6892056701943345e-01  7.5685945096726170e-01  7.4461889450417174e-01  7.3218476555888545e-01  7.1954240938914182e-01  7.0667667696989345e-01  6.9357196425311696e-01  6.8021226466532470e-01  6.6658123762859023e-01  6.5266229634979356e-01  6.3843871860528234e-01  6.2389378472492985e-01  6.0901094740140016e-01  5.9377403823946162e-01  5.7816751599977134e-01  5.6217676111476567e-01  5.4578842003348349e-01  5.2899080099384299e-01  5.1177431957374742e-01  4.9413198745998804e-01  4.7605993096976157e-01  4.5755791682191166e-01  4.3862985173584712e-01  4.1928421055558585e-01  3.9953433662745030e-01  3.7939855109019183e-01  3.5890000848297554e-01  3.3806624868291596e-01  3.1692842223666762e-01  2.9552020666133955e-01  1.0000000000000000e+00  9.8948856033542665e-01  9.7897397371566486e-01  9.6845277480480751e-01  9.5792113924847666e-01  9.4737487126866105e-01  9.3680939130734764e-01  9.2621972373950590e-01  9.1560048468365429e-01  9.0494586994847115e-01  8.9424964316699018e-01  8.8350512418643989e-01  8.7270517780220924e-01  8.6184220294956837e