<?xml version="1.0"?>
<VTKFile type="UnstructuredGrid"  version="0.1"  >
<UnstructuredGrid>
<Piece  NumberOfPoints="2601" NumberOfCells="5000">
<Points>
<DataArray  type="Float64"  NumberOfComponents="3"  format="ascii">0 0 0  0.02 0 0  0.04 0 0  0.06 0 0  0.08 0 0  0.1 0 0  0.12 0 0  0.14 0 0  0.16 0 0  0.18 0 0  0.2 0 0  0.22 0 0  0.24 0 0  0.26 0 0  0.28 0 0  0.3 0 0  0.32 0 0  0.34 0 0  0.36 0 0  0.38 0 0  0.4 0 0  0.42 0 0  0.44 0 0  0.46 0 0  0.48 0 0  0.5 0 0  0.52 0 0  0.54 0 0  0.5600000000000001 0 0  0.58 0 0  0.6 0 0  0.62 0 0  0.64 0 0  0.66 0 0  0.68 0 0  0.7 0 0  0.72 0 0  0.74 0 0  0.76 0 0  0.78 0 0  0.8 0 0  0.82 0 0  0.84 0 0  0.86 0 0  0.88 0 0  0.9 0 0  0.92 0 0  0.9399999999999999 0 0  0.96 0 0  0.98 0 0  1 0 0  0 0.02 0  0.02 0.02 0  0.04 0.02 0  0.06 0.02 0  0.08 0.02 0  0.1 0.02 0  0.12 0.02 0  0.14 0.02 0  0.16 0.02 0  0.18 0.02 0  0.2 0.02 0  0.22 0.02 0  0.24 0.02 0  0.26 0.02 0  0.28 0.02 0  0.3 0.02 0  0.32 0.02 0  0.34 0.02 0  0.36 0.02 0  0.38 0.02 0  0.4 0.02 0  0.42 0.02 0  0.44 0.02 0  0.46 0.02 0  0.48 0.02 0  0.5 0.02 0  0.52 0.02 0  0.54 0.02 0  0.5600000000000001 0.02 0  0.58 0.02 0  0.6 0.02 0  0.62 0.02 0  0.64 0.02 0  0.66 0.02 0  0.68 0.02 0  0.7 0.02 0  0.72 0.02 0  0.74 0.02 0  0.76 0.02 0  0.78 0.02 0  0.8 0.02 0  0.82 0.02 0  0.84 0.02 0  0.86 0.02 0  0.88 0.02 0  0.9 0.02 0  0.92 0.02 0  0.9399999999999999 0.02 0  0.96 0.02 0  0.98 0.02 0  1 0.02 0  0 0.04 0  0.02 0.04 0  0.04 0.04 0  0.06 0.04 0  0.08 0.04 0  0.1 0.04 0  0.12 0.04 0  0.14 0.04 0  0.16 0.04 0  0.18 0.04 0  0.2 0.04 0  0.22 0.04 0  0.24 0.04 0  0.26 0.04 0  0.28 0.04 0  0.3 0.04 0  0.32 0.04 0  0.34 0.04 0  0.36 0.04 0  0.38 0.04 0  0.4 0.04 0  0.42 0.04 0  0.44 0.04 0  0.46 0.04 0  0.48 0.04 0  0.5 0.04 0  0.52 0.04 0  0.54 0.04 0  0.5600000000000001 0.04 0  0.58 0.04 0  0.6 0.04 0  0.62 0.04 0  0.64 0.04 0  0.66 0.04 0  0.68 0.04 0  0.7 0.04 0  0.72 0.04 0  0.74 0.04 0  0.76 0.04 0  0.78 0.04 0  0.8 0.04 0  0.82 0.04 0  0.84 0.04 0  0.86 0.04 0  0.88 0.04 0  0.9 0.04 0  0.92 0.04 0  0.9399999999999999 0.04 0  0.96 0.04 0  0.98 0.04 0  1 0.04 0  0 0.06 0  0.02 0.06 0  0.04 0.06 0  0.06 0.06 0  0.08 0.06 0  0.1 0.06 0  0.12 0.06 0  0.14 0.06 0  0.16 0.06 0  0.18 0.06 0  0.2 0.06 0  0.22 0.06 0  0.24 0.06 0  0.26 0.06 0  0.28 0.06 0  0.3 0.06 0  0.32 0.06 0  0.34 0.06 0  0.36 0.06 0  0.38 0.06 0  0.4 0.06 0  0.42 0.06 0  0.44 0.06 0  0.46 0.06 0  0.48 0.06 0  0.5 0.06 0  0.52 0.06 0  0.54 0.06 0  0.5600000000000001 0.06 0  0.58 0.06 0  0.6 0.06 0  0.62 0.06 0  0.64 0.06 0  0.66 0.06 0  0.68 0.06 0  0.7 0.06 0  0.72 0.06 0  0.74 0.06 0  0.76 0.06 0  0.78 0.06 0  0.8 0.06 0  0.82 0.06 0  0.84 0.06 0  0.86 0.06 0  0.88 0.06 0  0.9 0.06 0  0.92 0.06 0  0.9399999999999999 0.06 0  0.96 0.06 0  0.98 0.06 0  1 0.06 0  0 0.08 0  0.02 0.08 0  0.04 0.08 0  0.06 0.08 0  0.08 0.08 0  0.1 0.08 0  0.12 0.08 0  0.14 0.08 0  0.16 0.08 0  0.18 0.08 0  0.2 0.08 0  0.22 0.08 0  0.24 0.08 0  0.26 0.08 0  0.28 0.08 0  0.3 0.08 0  0.32 0.08 0  0.34 0.08 0  0.36 0.08 0  0.38 0.08 0  0.4 0.08 0  0.42 0.08 0  0.44 0.08 0  0.46 0.08 0  0.48 0.08 0  0.5 0.08 0  0.52 0.08 0  0.54 0.08 0  0.5600000000000001 0.08 0  0.58 0.08 0  0.6 0.08 0  0.62 0.08 0  0.64 0.08 0  0.66 0.08 0  0.68 0.08 0  0.7 0.08 0  0.72 0.08 0  0.74 0.08 0  0.76 0.08 0  0.78 0.08 0  0.8 0.08 0  0.82 0.08 0  0.84 0.08 0  0.86 0.08 0  0.88 0.08 0  0.9 0.08 0  0.92 0.08 0  0.9399999999999999 0.08 0  0.96 0.08 0  0.98 0.08 0  1 0.08 0  0 0.1 0  0.02 0.1 0  0.04 0.1 0  0.06 0.1 0  0.08 0.1 0  0.1 0.1 0  0.12 0.1 0  0.14 0.1 0  0.16 0.1 0  0.18 0.1 0  0.2 0.1 0  0.22 0.1 0  0.24 0.1 0  0.26 0.1 0  0.28 0.1 0  0.3 0.1 0  0.32 0.1 0  0.34 0.1 0  0.36 0.1 0  0.38 0.1 0  0.4 0.1 0  0.42 0.1 0  0.44 0.1 0  0.46 0.1 0  0.48 0.1 0  0.5 0.1 0  0.52 0.1 0  0.54 0.1 0  0.5600000000000001 0.1 0  0.58 0.1 0  0.6 0.1 0  0.62 0.1 0  0.64 0.1 0  0.66 0.1 0  0.68 0.1 0  0.7 0.1 0  0.72 0.1 0  0.74 0.1 0  0.76 0.1 0  0.78 0.1 0  0.8 0.1 0  0.82 0.1 0  0.84 0.1 0  0.86 0.1 0  0.88 0.1 0  0.9 0.1 0  0.92 0.1 0  0.9399999999999999 0.1 0  0.96 0.1 0  0.98 0.1 0  1 0.1 0  0 0.12 0  0.02 0.12 0  0.04 0.12 0  0.06 0.12 0  0.08 0.12 0  0.1 0.12 0  0.12 0.12 0  0.14 0.12 0  0.16 0.12 0  0.18 0.12 0  0.2 0.12 0  0.22 0.12 0  0.24 0.12 0  0.26 0.12 0  0.28 0.12 0  0.3 0.12 0  0.32 0.12 0  0.34 0.12 0  0.36 0.12 0  0.38 0.12 0  0.4 0.12 0  0.42 0.12 0  0.44 0.12 0  0.46 0.12 0  0.48 0.12 0  0.5 0.12 0  0.52 0.12 0  0.54 0.12 0  0.5600000000000001 0.12 0  0.58 0.12 0  0.6 0.12 0  0.62 0.12 0  0.64 0.12 0  0.66 0.12 0  0.68 0.12 0  0.7 0.12 0  0.72 0.12 0  0.74 0.12 0  0.76 0.12 0  0.78 0.12 0  0.8 0.12 0  0.82 0.12 0  0.84 0.12 0  0.86 0.12 0  0.88 0.12 0  0.9 0.12 0  0.92 0.12 0  0.9399999999999999 0.12 0  0.96 0.12 0  0.98 0.12 0  1 0.12 0  0 0.14 0  0.02 0.14 0  0.04 0.14 0  0.06 0.14 0  0.08 0.14 0  0.1 0.14 0  0.12 0.14 0  0.14 0.14 0  0.16 0.14 0  0.18 0.14 0  0.2 0.14 0  0.22 0.14 0  0.24 0.14 0  0.26 0.14 0  0.28 0.14 0  0.3 0.14 0  0.32 0.14 0  0.34 0.14 0  0.36 0.14 0  0.38 0.14 0  0.4 0.14 0  0.42 0.14 0  0.44 0.14 0  0.46 0.14 0  0.48 0.14 0  0.5 0.14 0  0.52 0.14 0  0.54 0.14 0  0.5600000000000001 0.14 0  0.58 0.14 0  0.6 0.14 0  0.62 0.14 0  0.64 0.14 0  0.66 0.14 0  0.68 0.14 0  0.7 0.14 0  0.72 0.14 0  0.74 0.14 0  0.76 0.14 0  0.78 0.14 0  0.8 0.14 0  0.82 0.14 0  0.84 0.14 0  0.86 0.14 0  0.88 0.14 0  0.9 0.14 0  0.92 0.14 0  0.9399999999999999 0.14 0  0.96 0.14 0  0.98 0.14 0  1 0.14 0  0 0.16 0  0.02 0.16 0  0.04 0.16 0  0.06 0.16 0  0.08 0.16 0  0.1 0.16 0  0.12 0.16 0  0.14 0.16 0  0.16 0.16 0  0.18 0.16 0  0.2 0.16 0  0.22 0.16 0  0.24 0.16 0  0.26 0.16 0  0.28 0.16 0  0.3 0.16 0  0.32 0.16 0  0.34 0.16 0  0.36 0.16 0  0.38 0.16 0  0.4 0.16 0  0.42 0.16 0  0.44 0.16 0  0.46 0.16 0  0.48 0.16 0  0.5 0.16 0  0.52 0.16 0  0.54 0.16 0  0.5600000000000001 0.16 0  0.58 0.16 0  0.6 0.16 0  0.62 0.16 0  0.64 0.16 0  0.66 0.16 0  0.68 0.16 0  0.7 0.16 0  0.72 0.16 0  0.74 0.16 0  0.76 0.16 0  0.78 0.16 0  0.8 0.16 0  0.82 0.16 0  0.84 0.16 0  0.86 0.16 0  0.88 0.16 0  0.9 0.16 0  0.92 0.16 0  0.9399999999999999 0.16 0  0.96 0.16 0  0.98 0.16 0  1 0.16 0  0 0.18 0  0.02 0.18 0  0.04 0.18 0  0.06 0.18 0  0.08 0.18 0  0.1 0.18 0  0.12 0.18 0  0.14 0.18 0  0.16 0.18 0  0.18 0.18 0  0.2 0.18 0  0.22 0.18 0  0.24 0.18 0  0.26 0.18 0  0.28 0.18 0  0.3 0.18 0  0.32 0.18 0  0.34 0.18 0  0.36 0.18 0  0.38 0.18 0  0.4 0.18 0  0.42 0.18 0  0.44 0.18 0  0.46 0.18 0  0.48 0.18 0  0.5 0.18 0  0.52 0.18 0  0.54 0.18 0  0.5600000000000001 0.18 0  0.58 0.18 0  0.6 0.18 0  0.62 0.18 0  0.64 0.18 0  0.66 0.18 0  0.68 0.18 0  0.7 0.18 0  0.72 0.18 0  0.74 0.18 0  0.76 0.18 0  0.78 0.18 0  0.8 0.18 0  0.82 0.18 0  0.84 0.18 0  0.86 0.18 0  0.88 0.18 0  0.9 0.18 0  0.92 0.18 0  0.9399999999999999 0.18 0  0.96 0.18 0  0.98 0.18 0  1 0.18 0  0 0.2 0  0.02 0.2 0  0.04 0.2 0  0.06 0.2 0  0.08 0.2 0  0.1 0.2 0  0.12 0.2 0  0.14 0.2 0  0.16 0.2 0  0.18 0.2 0  0.2 0.2 0  0.22 0.2 0  0.24 0.2 0  0.26 0.2 0  0.28 0.2 0  0.3 0.2 0  0.32 0.2 0  0.34 0.2 0  0.36 0.2 0  0.38 0.2 0  0.4 0.2 0  0.42 0.2 0  0.44 0.2 0  0.46 0.2 0  0.48 0.2 0  0.5 0.2 0  0.52 0.2 0  0.54 0.2 0  0.5600000000000001 0.2 0  0.58 0.2 0  0.6 0.2 0  0.62 0.2 0  0.64 0.2 0  0.66 0.2 0  0.68 0.2 0  0.7 0.2 0  0.72 0.2 0  0.74 0.2 0  0.76 0.2 0  0.78 0.2 0  0.8 0.2 0  0.82 0.2 0  0.84 0.2 0  0.86 0.2 0  0.88 0.2 0  0.9 0.2 0  0.92 0.2 0  0.9399999999999999 0.2 0  0.96 0.2 0  0.98 0.2 0  1 0.2 0  0 0.22 0  0.02 0.22 0  0.04 0.22 0  0.06 0.22 0  0.08 0.22 0  0.1 0.22 0  0.12 0.22 0  0.14 0.22 0  0.16 0.22 0  0.18 0.22 0  0.2 0.22 0  0.22 0.22 0  0.24 0.22 0  0.26 0.22 0  0.28 0.22 0  0.3 0.22 0  0.32 0.22 0  0.34 0.22 0  0.36 0.22 0  0.38 0.22 0  0.4 0.22 0  0.42 0.22 0  0.44 0.22 0  0.46 0.22 0  0.48 0.22 0  0.5 0.22 0  0.52 0.22 0  0.54 0.22 0  0.5600000000000001 0.22 0  0.58 0.22 0  0.6 0.22 0  0.62 0.22 0  0.64 0.22 0  0.66 0.22 0  0.68 0.22 0  0.7 0.22 0  0.72 0.22 0  0.74 0.22 0  0.76 0.22 0  0.78 0.22 0  0.8 0.22 0  0.82 0.22 0  0.84 0.22 0  0.86 0.22 0  0.88 0.22 0  0.9 0.22 0  0.92 0.22 0  0.9399999999999999 0.22 0  0.96 0.22 0  0.98 0.22 0  1 0.22 0  0 0.24 0  0.02 0.24 0  0.04 0.24 0  0.06 0.24 0  0.08 0.24 0  0.1 0.24 0  0.12 0.24 0  0.14 0.24 0  0.16 0.24 0  0.18 0.24 0  0.2 0.24 0  0.22 0.24 0  0.24 0.24 0  0.26 0.24 0  0.28 0.24 0  0.3 0.24 0  0.32 0.24 0  0.34 0.24 0  0.36 0.24 0  0.38 0.24 0  0.4 0.24 0  0.42 0.24 0  0.44 0.24 0  0.46 0.24 0  0.48 0.24 0  0.5 0.24 0  0.52 0.24 0  0.54 0.24 0  0.5600000000000001 0.24 0  0.58 0.24 0  0.6 0.24 0  0.62 0.24 0  0.64 0.24 0  0.66 0.24 0  0.68 0.24 0  0.7 0.24 0  0.72 0.24 0  0.74 0.24 0  0.76 0.24 0  0.78 0.24 0  0.8 0.24 0  0.82 0.24 0  0.84 0.24 0  0.86 0.24 0  0.88 0.24 0  0.9 0.24 0  0.92 0.24 0  0.9399999999999999 0.24 0  0.96 0.24 0  0.98 0.24 0  1 0.24 0  0 0.26 0  0.02 0.26 0  0.04 0.26 0  0.06 0.26 0  0.08 0.26 0  0.1 0.26 0  0.12 0.26 0  0.14 0.26 0  0.16 0.26 0  0.18 0.26 0  0.2 0.26 0  0.22 0.26 0  0.24 0.26 0  0.26 0.26 0  0.28 0.26 0  0.3 0.26 0  0.32 0.26 0  0.34 0.26 0  0.36 0.26 0  0.38 0.26 0  0.4 0.26 0  0.42 0.26 0  0.44 0.26 0  0.46 0.26 0  0.48 0.26 0  0.5 0.26 0  0.52 0.26 0  0.54 0.26 0  0.5600000000000001 0.26 0  0.58 0.26 0  0.6 0.26 0  0.62 0.26 0  0.64 0.26 0  0.66 0.26 0  0.68 0.26 0  0.7 0.26 0  0.72 0.26 0  0.74 0.26 0  0.76 0.26 0  0.78 0.26 0  0.8 0.26 0  0.82 0.26 0  0.84 0.26 0  0.86 0.26 0  0.88 0.26 0  0.9 0.26 0  0.92 0.26 0  0.9399999999999999 0.26 0  0.96 0.26 0  0.98 0.26 0  1 0.26 0  0 0.28 0  0.02 0.28 0  0.04 0.28 0  0.06 0.28 0  0.08 0.28 0  0.1 0.28 0  0.12 0.28 0  0.14 0.28 0  0.16 0.28 0  0.18 0.28 0  0.2 0.28 0  0.22 0.28 0  0.24 0.28 0  0.26 0.28 0  0.28 0.28 0  0.3 0.28 0  0.32 0.28 0  0.34 0.28 0  0.36 0.28 0  0.38 0.28 0  0.4 0.28 0  0.42 0.28 0  0.44 0.28 0  0.46 0.28 0  0.48 0.28 0  0.5 0.28 0  0.52 0.28 0  0.54 0.28 0  0.5600000000000001 0.28 0  0.58 0.28 0  0.6 0.28 0  0.62 0.28 0  0.64 0.28 0  0.66 0.28 0  0.68 0.28 0  0.7 0.28 0  0.72 0.28 0  0.74 0.28 0  0.76 0.28 0  0.78 0.28 0  0.8 0.28 0  0.82 0.28 0  0.84 0.28 0  0.86 0.28
[...]
<PointData  Scalars="f_17"> 
<DataArray  type="Float64"  Name="f_17"  format="ascii">1.0000000000000000e+00  9.8879490897042921e-01  9.7758298498883500e-01  9.6635695316216419e-01  9.5510910112276981e-01  9.4383123722956852e-01  9.3251465427368618e-01  9.2115009388421210e-01  9.0972771028353538e-01  8.9823703282599388e-01  8.8666692693586502e-01  8.7500555309170946e-01  8.6324032348868129e-01  8.5135785597481406e-01  8.3934392480789954e-01  8.2718340771694698e-01  8.1486022867483532e-01  8.0235729569376868e-01  7.8965643283860176e-01  7.7673830550975664e-01  7.6358233787052898e-01  7.5016662107409759e-01  7.3646781067185640e-01  7.2246101124121043e-01  7.0811964583706577e-01  6.9341530731893164e-01  6.7831758789690511e-01  6.6279388232244563e-01  6.4680915895089752e-01  6.3032569131919636e-01  6.1330274076668689e-01  5.9569617776507977e-01  5.7745802569825433e-01  5.5853590536632292e-01  5.3887235074725648e-01  5.1840395537995665e-01  4.9706029227642662e-01  4.7476252544813646e-01  4.5142159267610893e-01  4.2693577772632230e-01  4.0118738854039676e-01  3.7403808245667453e-01  3.4532206104427260e-01  3.1483574229351913e-01  2.8232123526781205e-01  2.4743799137056091e-01  2.0970934614949030e-01  1.6840782235504081e-01  1.2226453892221685e-01  6.8581434402150296e-02  0.0000000000000000e+00  1.0000000000000000e+00  9.8879854794290889e-01  9.7759025557050194e-01  9.6636788221460623e-01  9.5512373660375205e-01  9.4384964553146344e-01  9.3253691996485155e-01  9.2117632012605344e-01  9.0975801953099422e-01  8.9827156772018524e-01  8.8670585137329594e-01  8.7504905347769013e-01  8.6328861019263214e-01  8.5141116501209257e-01  8.3940251977936053e-01  8.2724758204484761e-01  8.1493030818248147e-01  8.0243364158709662e-01  7.8973944516126382e-01  7.7682842716009015e-01  7.6368005929004656e-01  7.5027248574425953e-01  7.3658242159075948e-01  7.2258503859706502e-01  7.0825383615450888e-01  6.9356049443241130e-01  6.7847470620971662e-01  6.6296398295080161e-01  6.4699342954469397e-01  6.3052548061713443e-01  6.1351958931660255e-01  5.9593185677205451e-01  5.7771458673354914e-01  5.5881574480760687e-01  5.3917829453474619e-01  5.1873937231649025e-01  4.9742924828266016e-01  4.7516999800056536e-01  4.5187377614178570e-01  4.2744053043000463e-01  4.0175490930146374e-01  3.7468197583199186e-01  3.4606109869649671e-01  3.1569696180392515e-01  2.8334585186921096e-01  2.4869395271582934e-01  2.1132195171820981e-01  1.7064767052140745e-01  1.2584611975452747e-01  7.5834874875379266e-02  1.9998666693333080e-02  1.0000000000000000e+00  9.8880943146171862e-01  9.7761206372240650e-01  9.6640070874559669e-01  9.5516772804979722e-01  9.4390500129842891e-01  9.3260389327989346e-01  9.2125521968098301e-01  9.0984921167492205e-01  8.9837547915293858e-01  8.8682297234541763e-01  8.7517994153294099e-01  8.6343389450930896e-01  8.5157155141732499e-01  8.3957879652926204e-01  8.2744062648491523e-01  8.1514109442848837e-01  8.0266324939842038e-01  7.8998907021795928e-01  7.7709939300438380e-01  7.6397383125530394e-01  7.5059068727395528e-01  7.3692685345200126e-01  7.2295770162532691e-01  7.0865695833872389e-01  6.9399656337696924e-01  6.7894650831264547e-01  6.6347465104480285e-01  6.4754650130230251e-01  6.3112497078578322e-01  6.1417007991763128e-01  5.9663861091261361e-01  5.7848369386358311e-01  5.5965430845660946e-01  5.4009467835286817e-01  5.1974352756431552e-01  4.9853315736987969e-01  4.7638828708696890e-01  4.5322458030652552e-01  4.2894674713656950e-01  4.0344606877315708e-01  3.7659712936197437e-01  3.4825346143460539e-01  3.1824173372063924e-01  2.8635412284002676e-01  2.5233894522568129e-01  2.1589161605996554e-01  1.7665520793209258e-01  1.3426325413829460e-01  8.8524383386382563e-02  3.9989334186634161e-02  1.0000000000000000e+00  9.8882751829695703e-01  9.7764831570432387e-01  9.6645528657779145e-01  9.5524087699591242e-01  9.4399705305442827e-01  9.3271526831514606e-01  9.2138643025065614e-01  9.1000086555322734e-01  8.9854828412144594e-01  8.8701774148783386e-01  8.7539759941029649e-01  8.6367548431303276e-01  8.5183824322305146e-01  8.3987189680308194e-01  8.2776158902794172e-01  8.1549153298696808e-01  8.0304495221740890e-01  7.9040401687963135e-01  7.7754977397091551e-01  7.6446207063571714e-01  7.5111946946065167e-01  7.3749915443440284e-01  7.2357682599664286e-01  7.0932658328321330e-01  6.9472079128121089e-01  6.7972993011613259e-01  6.6432242307661804e-01  6.4846443920483798e-01  6.3211966529565899e-01  6.1524904089438381e-01  5.9781044828216479e-01  5.7975834738853937e-01  5.6104334294492475e-01  5.4161166783957171e-01  5.2140456239073074e-01  5.0035752399232303e-01  4.7839939533474557e-01  4.5545125265828068e-01  4.3142504996829018e-01  4.0622197554815448e-01  3.7973049546592352e-01  3.5182412468056162e-01  3.2235915152099698e-01  2.9117301714293486e-01  2.5808521828175690e-01  2.2290534596984582e-01  1.8545892720371865e-01  1.4565339006376446e-01  1.0362140899328554e-01  5.9964006479444588e-02  1.0000000000000000e+00  9.8885272996662055e-01  9.7769885084747565e-01  9.6653137107070719e-01  9.5534285333894264e-01  9.4412538327208595e-01  9.3287053748433468e-01  9.2156935083243707e-01  9.1021228263233755e-01  8.9878918163797283e-01  8.8728924955267752e-01  8.7570100281541086e-01  8.6401223237326330e-01  8.5220996111758451e-01  8.4028039862177673e-01  8.2820889277268928e-01  8.1597987783284864e-01  8.0357681840551842e-01  7.9098214869654759e-01  7.7817720637344245e-01  7.6514216020975712e-01  7.5185593056776112e-01  7.3829610160941517e-01  7.2443882392897574e-01  7.1025870606268993e-01  6.9572869304317175e-01  6.8081992981760175e-01  6.6550160692754379e-01  6.4974078534014135e-01  6.3350219671134300e-01  6.1674801463882012e-01  5.9943759161899701e-01  5.8152715546870093e-01  5.6296945795244324e-01  5.4371336738943499e-01  5.2370339636550434e-01  5.0287915590102050e-01  4.8117472965872243e-01  4.5851796828135583e-01  4.3482971923743297e-01  4.1002304057488898e-01  3.8400251546147601e-01  3.5666392318217521e-01  3.2789479867449123e-01  2.9757695142554980e-01  2.6559302638101134e-01  2.3184095545192085e-01  1.9626276168301132e-01  1.5889642948009081e-01  1.1995558421682007e-01  7.9914693969172695e-02  1.0000000000000000e+00  9.8888495444115343e-01  9.7776344333963028e-01  9.6662862061268107e-01  9.5547319730070845e-01  9.4428941100928809e-01  9.3306899487804429e-01  9.2180314583586587e-01  9.1048249193201769e-01  8.9909705853693855e-01  8.8763623319541507e-01  8.7608872889611000e-01  8.6444254549819044e-01  8.5268492902869353e-01  8.4080232853276304e-01  8.2878035012216900e-01  8.1660370782448921e-01  8.0425617078484468e-01  7.9172050631274138e-01  7.7897841819691427e-01  7.6601047962930546e-01  7.5279605998360377e-01  7.3931324458199588e-01  7.2553874645383953e-01  7.1144780893992299e-01  6.9701409782445223e-01  6.8220958148376698e-01  6.6700439732854655e-01  6.5136670259204044e-01  6.3526250729637201e-01  6.1865548704272000e-01  6.0150677317575563e-01  5.8377471796952085e-01  5.6541463295032557e-01  5.4637849962640750e-01  5.2661465428307364e-01  5.0606745308436896e-01  4.8467693217324759e-01  4.6237849271017883e-01  4.3910266794458813e-01  4.1477507732511915e-01  3.8931675639807217e-01  3.6264519560955971e-01  3.3467666406743851e-01  3.0533078522289303e-01  2.7453890734339786e-01  2.4225850573973640e-01  2.0849623603212869e-01  1.7334096615950359e-01  1.3700207756060406e-01  9.9833416646828155e-02  1.0000000000000000e+00  9.8892404789720723e-01  9.7784180424313727e-01  9.6674659898994264e-01  9.5563132242795612e-01  9.4448839571539756e-01  9.3330974098037212e-01  9.2208675079410762e-01  9.1081025682321659e-01  8.9947049747012608e-01  8.8805708430421726e-01  8.7655896707391789e-01  8.6496439707366801e-01  8.5326088862006477e-01  8.4143517836864512e-01  8.2947318217647137e-01  8.1735994918554034e-01  8.0507961276760376e-01  7.9261533793191230e-01  7.7994926475328830e-01  7.6706244732869122e-01  7.5393478771621203e-01  7.4054496425192717e-01  7.2687035357881646e-01  7.1288694566111632e-01  6.9856925100236977e-01  6.8389019924518069e-01  6.6882102832033963e-01  6.5333116335694030e-01  6.3738808470264519e-01  6.2095718469726380e-01  6.0400161339371850e-01  5.8648211438871234e-01  5.6835685356743371e-01  5.4958124629291372e-01  5.3010779303891220e-01  5.0988594072877724e-01  4.8886199878324665e-01  4.6697915776070142e-01  4.4417768864319068e-01  4.2039544854870670e-01  3.9556889286671676e-01  3.6963490580348096e-01  3.4253392140508110e-01  3.1421501314602124e-01  2.8464383699773849e-01  2.5381436508490679e-01  2.2176486033953283e-01  1.8859677985767567e-01  1.5449131652920473e-01  1.1971220728891938e-01  1.0000000000000000e+00  9.8896983600975696e-01  9.7793358365886218e-01  9.6688477835288889e-01  9.5581651945376178e-01  9.4472144210295228e-01  9.3359168865843711e-01  9.2241887957880586e-01  9.1119408358801690e-01  8.9990778695324991e-01  8.8854986170394501e-01  8.7710953261255675e-01  8.6557534274740999e-01  8.5393511739584427e-01  8.4217592614189107e-01  8.3028404286725743e-01  8.1824490342751821e-01  8.0604306073750498e-01  7.9366213698134147e-01  7.8108477264419540e-01  7.6829257204592016e-01  7.5526604504332362e-01  7.4198454456095664e-01  7.2842619961477251e-01  7.1456784351598168e-01  7.0038493699462434e-01  6.8585148607998447e-01  6.7093995474210844e-01  6.5562117257154273e-01  6.3986423820710903e-01  6.2363641989531737e-01  6.0690305560187674e-01  5.8962745667895489e-01  5.7177082149703284e-01  5.5329216909085366e-01  5.3414830836319915e-01  5.1429386665339705e-01  4.9368141384447517e-01  4.7226173654683251e-01  4.4998434381328095e-01  4.2679832445108939e-01  4.0265372940270028e-01  3.7750372196076765e-01  3.5130781795878208e-01  3.2403660434661263e-01  2.9567831774086129e-01  2.6624745909456982e-01  2.3579500202852435e-01  2.0441845795902847e-01  1.7226802982186445e-01  1.3954311464423649e-01  1.0000000000000000e+00  9.8902211520277095e-01  9.7803837310536801e-01  9.6704254268673062e-01  9.5602796090520925e-01  9.4498750597735492e-01  9.3391357031724842e-01  9.2279803299862850e-01  9.1163223160019324e-01  9.0040693329312316e-01  8.8911230502768202e-01  8.7773788267227093e-01  8.6627253895384482e-01  8.5470445004350415e-01  8.4302106062583193e-01  8.3120904728569989e-01  8.1925428004243439e-01  8.0714178185932572e-01  7.9485568595768419e-01  7.8237919077072526e-01  7.6969451238598896e-01  7.5678283434924909e-01  7.4362425474293470e-01  7.3019773051508929e-01  7.1648101913088191e-01  7.0245061776206785e-01  6.8808170044109118e-01  6.7334805391499031e-01  6.5822201338185282e-01  6.4267439993920872e-01  6.2667446250536485e-01  6.1018982831413060e-01  5.9318646800600028e-01  5.7562868409359924e-01  5.5747913551629624e-01  5.3869891660356506e-01  5.1924771669465597e-01  4.9908409776248247e-01  4.7816594268095658e-01  4.5645114729833919e-01  4.3389865587216020e-01  4.1046997092410248e-01  3.8613130097798454e-01  3.6085653150302172e-01  3.3463119088067167e-01  3.0745748828644659e-01  2.7936025182485164e-01  2.5039310739700027e-01  2.2064347379359953e-01  1.9023406825502176e-01  1.5931820661424598e-01  1.0000000000000000e+00  9.8908065398051714e-01  9.7815570815033570e-01  9.6721919174090176e-01  9.5626470637236438e-01  9.4528540092139846e-01  9.3427394610145398e-01  9.2322250864320088e-01  9.1212272496181801e-01  9.0096567419770279e-01  8.8974185051743826e-01  8.7844113456227846e-01  8.6705276393218622e-01  8.5556530259499719e-01  8.4396660911323373e-01  8.3224380358619476e-01  8.2038323321329765e-01  8.0837043639750961e-01  7.9619010532695822e-01  7.8382604700088865e-01  7.7126114270635837e-01  7.5847730600901941e-01  7.4545543940123749e-01  7.3217538986221808e-01  7.1861590373946560e-01  7.0475458157495463e-01  6.9056783379506159e-01  6.7603083859123880e-01  6.6111750388071666e-01  6.4580043601125203e-01  6.3005091894048093e-01  6.1383890908714966e-01  5.9713305306457087e-01  5.7990073826075828e-01  5.6210818997790446e-01  5.4372063390339165e-01  5.2470254942816863e-01  5.0501804814340023e-01  4.8463142302400691e-01  4.6350792729971169e-01  4.4161485694922537e-01  4.1892302456080205e-01  3.9540871926548682e-01  3.7105623660907544e-01  3.4586101501312311e-01  3.1983330464419929e-01  2.9300208852852305e-01  2.6541865645711410e-01  2.3715883579606287e-01  2.0832256476055266e-01  1.7902957342582418e-01  1.0000000000000000e+00  9.8914519437070936e-01  9.7828507129631537e-01  9.6741394537563608e-01  9.5652570836254636e-01  9.4561380573295706e-01  9.3467121301903155e-01  9.2369041182195943e-01  9.1266336541518855e-01  9.0158149385183750e-01  8.9043564849297319e-01  8.7921608587754108e-01  8.6791244086032970e-01  8.5651369895190199e-01  8.4500816780478860e-01  8.3338344780427531e-01  8.2162640174127022e-01  8.0972312357057774e-01  7.9765890629274239e-01  7.8541820904433268e-01  7.7298462354403497e-01  7.6034084012533520e-01  7.4746861369776141e-01  7.3434873012675350e-01  7.2096097371940582e-01  7.0728409676581128e-01  6.9329579243518868e-01  6.7897267279115725e-01  6.6429025430962751e-01  6.4922295410608843e-01  6.3374410117227775e-01  6.1782596836993553e-01  6.0143983283827462e-01  5.8455607497212814e-01  5.6714432936992998e-01  5.4917370529216203e-01  5.3061309934300327e-01  5.1143162932639341e-01  4.9159922534028772e-01  4.7108742150471300e-01  4.4987039776678689e-01  4.2792632305526351e-01  4.0523904353753226e-01  3.8180013476430036e-01  3.5761128279980908e-01  3.3268686423550681e-01  3.0705644973324303e-01  2.8076676884721991e-01  2.5388249098665883e-01  2.2648510112417053e-01  1.9866933079506122e-01  1.0000000000000000e+00  9.8921545348000040e-01  9.7842589510258449e-01  9.6762594827883830e-01  9.5680981866418180e-01  9.4597127251329183e-01  9.3510361485777393e-01  9.2419966744005733e-01  9.1325174633936057e-01  9.0225163922950580e-01  8.9119058221392544e-01  8.8005923619072557e-01  8.6884766271051195e-01  8.5754529930255075e-01  8.4614093426153858e-01  8.3462268090900271e-01  8.2297795137156515e-01  8.1119342995493837e-01  7.9925504623997390e-01  7.8714794808857769e-01  7.7485647482690934e-01  7.6236413097628941e-01  7.4965356103560754e-01  7.3670652599161679e-01  7.2350388245695763e-01  7.1002556562504116e-01  6.9625057760534947e-01  6.8215698318700269e-01  6.6772191570402284e-01  6.5292159648194981e-01  6.3773137238070343e-01  6.2212577727062723e-01  6.0607862495321030e-01  5.8956314313411440e-01  5.7255216063485093e-01  5.5501836312158526e-01  5.3693463619431714e-01  5.1827451853387774e-01  4.9901279150642108e-01  4.7912623430029216e-01  4.5859457376411522e-01  4.3740165309705981e-01  4.1553682963886091e-01  3.9299658418373501e-01  3.6978627687611410e-01  3.4592191371676717e-01  3.2143169477928968e-01  2.9635701508074086e-01  2.7075251708543685e-01  2.4468480829601133e-01  2.1822962308086932e-01  1.0000000000000000e+00  9.8929112515096618e-01  9.7857756551446207e-01  9.6785427500128052e-01  9.5711579514277723e-01  9.4635623530223789e-01  9.3556925276336833e-01  9.2474803265013827e-01  9.1388526763625566e-01  9.0297313740840812e-01  8.9200328785537142e-01  8.8096680996555377e-01  8.6985421842903365e-01  8.5865542995739697e-01  8.4735974135664882e-01  8.3595580741637776e-01  8.2443161871378978e-01  8.1277447947613646e-01  8.0097098570203096e-01  7.8900700381427469e-01  7.7686765020822257e-01  7.6453727217545775e-01  7.5199943082910659e-01  7.3923688684265465e-01  7.2623159004887872e-01  7.1296467424227616e-01  6.9941645890305548e-01  6.8556646003274591e-01  6.7139341288417120e-01  6.5687531010929068e-01  6.4198945976792865e-01  6.2671256877101500e-01  6.1102085870316902e-01  5.9489022260028979e-01  5.7829643314231094e-01  5.6121541480477566e-01  5.4362359465360754e-01  5.2549834837866904e-01  5.0681855932875308e-01  4.8756530788339364e-01  4.6772270516788295e-01  4.4727887702632702e-01  4.2622708891506506e-01  4.0456697732225055e-01  3.8230581639475386e-01  3.5945969983084258e-01  3.3605446282014406e-01  3.1212611997778239e-01  2.8772057592889649e-01  2.6289240562683280e-01  2.3770262642713458e-01  1.0000000000000000e+00  9.8937188170522439e-01  9.7873942536651637e-01  9.6809793525523802e-01  9.5744230889058624e-01  9.4676701915664196e-01  9.3606609634827909e-01  9.2533311011938280e-01  9.1456115131223747e-01  9.0374281365449094e-01  8.9287017532003232e-01  8.8193478036304440e-01  8.7092762005085678e-01  8.5983911414194925e-01  8.4865909218139945e-01  8.3737677491862628e-01  8.2598075599289178e-01  8.1445898408275585e-01  8.0279874577891019e-01  7.9098664951860054e-01  7.7900861101791530e-01  7.6684984076023477e-01  7.5449483425074571e-01  7.4192736593513520e-01  7.2913048791382107e-01  7.1608653487145613e-01  7.0277713699694544e-01  6.8918324310555290e-01  6.7528515670710410e-01  6.6106258840884213e-01  6.4649472881303882e-01  6.3156034697903352e-01  6.1623792056826499e-01  6.0050580496232531e-01  5.8434244988901796e-01  5.6772667330800597e-01  5.5063800331110346e-01  5.3305709927506673e-01  5.1496626298687043e-01  4.9635004823905043e-01  4.7719597250164558e-01  4.5749532551038080e-01  4.3724405565219476e-01  4.1644369480368704e-01  3.9510225562495171e-01  3.7323500405139215e-01  3.5086497900420854e-01  3.2802311072564821e-01  3.0474779235464761e-01  2.8108380094360902e-01  2.5708055189215512e-01  1.0000000000000000e+00  9.8945737575572634e-01  9.7891077802435300e-01  9.6835587942096879e-01  9.5778795165224773e-01  9.4720184957037035e-01  9.3659199520375902e-01  9.2595236175549289e-01  9.1527645756678522e-01  9.0455731005171125e-01  8.9378744962086965e-01  8.8295889362638647e-01  8.7206313037919425e-01  8.6109110331264549e-01  8.5003319539527444e-01  8.3887921393107379e-01  8.2761837592953835e-01  8.1623929428180442e-01  8.0472996504570615e-01  7.9307775622423682e-01  7.8126939852202426e-01  7.6929097868701257e-01  7.5712793619423713e-01  7.4476506421103950e-01  7.3218651600465534e-01  7.1937581822117236e-01  7.0631589278742690e-01  6.9298908957281502e-01  6.7937723240423442e-01  6.6546168156067387e-01  6.5122341648671267e-01  6.3664314315123915e-01  6.2170143122119248e-01  6.0637888698116704e-01  5.9065636863709958e-01  5.7451525117663516e-01  5.5793774813262809e-01  5.4090729713051411e-01  5.2340901460147415e-01  5.0543022198976950e-01  4.8696104053680744e-01  4.6799504359800953e-01  4.4852994385939554e-01  4.2856827758678506e-01  4.0811802983818368e-01  3.8719312552811685e-01  3.6581369549649023e-01  3.4400602062313623e-01  3.2180206818752538e-01  2.9923856960185197e-01  2.7635564856411376e-01  1.0000000000000000e+00  9.8954724207102029e-01  9.7909089112978787e-01  9.6862700420659120e-01  9.5815124345120373e-01  9.4765886213831196e-01  9.3714469069304984e-01  9.2660312274295653e-01  9.1602810120991784e-01  9.0541310446538337e-01  8.9475113258467054e-01  8.8403469375210653e-01  8.7325579088859984e-01  8.6240590859785460e-01  8.5147600055769312e-01  8.4045647752006458e-01  8.2933719612858792e-01  8.1810744881766051e-01  8.0675595512418463e-01  7.9527085482420690e-01  7.8363970340497413e-01  7.7184947050133523e-01  7.5988654206765116e-01  7.4773672722661655e-01  7.3538527093903372e-01  7.2281687387830773e-01  7.1001572117469502e-01  6.9696552202087247e-01  6.8364956250415809e-01  6.7005077445047168e-01  6.5615182352407753e-01  6.4193522030969008e-01  6.2738345858037869e-01  6.1247918537662005e-01  5.9720540781093978e-01  5.8154574155227778e-01  5.6548470556750952e-01  5.4900806667685842e-01  5.3210323552174632e-01  5.1475971229658446e-01  4.9696957568373595e-01  4.7872800152683082e-01  4.6003378874002787e-01  4.4088985903176653e-01  4.2130368514115291e-01  4.0128759131630987e-01  3.8085886269438152e-01  3.6003960098970200e-01  3.3885627650305278e-01  3.1733895351800245e-01  2.9552020666133955e-01  1.0000000000000000e+00  9.8964109947484291e-01  9.7927900041560711e-01  9.6891015840952066e-01  9.5853064034587365e-01  9.4813611237275619e-01  9.3772182791193914e-01  9.2728261575152438e-01  9.1681286824365882e-01  9.0630652964483394e-01  8.9575708464938086e-01  8.8515754718325912e-01  8.7450044954569017e-01  8.6377783201129543e