<?xml version="1.0"?>
<VTKFile type="UnstructuredGrid"  version="0.1"  >
<UnstructuredGrid>
<Piece  NumberOfPoints="2601" NumberOfCells="5000">
<Points>
<DataArray  type="Float64"  NumberOfComponents="3"  format="ascii">0 0 0  0.02 0 0  0.04 0 0  0.06 0 0  0.08 0 0  0.1 0 0  0.12 0 0  0.14 0 0  0.16 0 0  0.18 0 0  0.2 0 0  0.22 0 0  0.24 0 0  0.26 0 0  0.28 0 0  0.3 0 0  0.32 0 0  0.34 0 0  0.36 0 0  0.38 0 0  0.4 0 0  0.42 0 0  0.44 0 0  0.46 0 0  0.48 0 0  0.5 0 0  0.52 0 0  0.54 0 0  0.5600000000000001 0 0  0.58 0 0  0.6 0 0  0.62 0 0  0.64 0 0  0.66 0 0  0.68 0 0  0.7 0 0  0.72 0 0  0.74 0 0  0.76 0 0  0.78 0 0  0.8 0 0  0.82 0 0  0.84 0 0  0.86 0 0  0.88 0 0  0.9 0 0  0.92 0 0  0.9399999999999999 0 0  0.96 0 0  0.98 0 0  1 0 0  0 0.02 0  0.02 0.02 0  0.04 0.02 0  0.06 0.02 0  0.08 0.02 0  0.1 0.02 0  0.12 0.02 0  0.14 0.02 0  0.16 0.02 0  0.18 0.02 0  0.2 0.02 0  0.22 0.02 0  0.24 0.02 0  0.26 0.02 0  0.28 0.02 0  0.3 0.02 0  0.32 0.02 0  0.34 0.02 0  0.36 0.02 0  0.38 0.02 0  0.4 0.02 0  0.42 0.02 0  0.44 0.02 0  0.46 0.02 0  0.48 0.02 0  0.5 0.02 0  0.52 0.02 0  0.54 0.02 0  0.5600000000000001 0.02 0  0.58 0.02 0  0.6 0.02 0  0.62 0.02 0  0.64 0.02 0  0.66 0.02 0  0.68 0.02 0  0.7 0.02 0  0.72 0.02 0  0.74 0.02 0  0.76 0.02 0  0.78 0.02 0  0.8 0.02 0  0.82 0.02 0  0.84 0.02 0  0.86 0.02 0  0.88 0.02 0  0.9 0.02 0  0.92 0.02 0  0.9399999999999999 0.02 0  0.96 0.02 0  0.98 0.02 0  1 0.02 0  0 0.04 0  0.02 0.04 0  0.04 0.04 0  0.06 0.04 0  0.08 0.04 0  0.1 0.04 0  0.12 0.04 0  0.14 0.04 0  0.16 0.04 0  0.18 0.04 0  0.2 0.04 0  0.22 0.04 0  0.24 0.04 0  0.26 0.04 0  0.28 0.04 0  0.3 0.04 0  0.32 0.04 0  0.34 0.04 0  0.36 0.04 0  0.38 0.04 0  0.4 0.04 0  0.42 0.04 0  0.44 0.04 0  0.46 0.04 0  0.48 0.04 0  0.5 0.04 0  0.52 0.04 0  0.54 0.04 0  0.5600000000000001 0.04 0  0.58 0.04 0  0.6 0.04 0  0.62 0.04 0  0.64 0.04 0  0.66 0.04 0  0.68 0.04 0  0.7 0.04 0  0.72 0.04 0  0.74 0.04 0  0.76 0.04 0  0.78 0.04 0  0.8 0.04 0  0.82 0.04 0  0.84 0.04 0  0.86 0.04 0  0.88 0.04 0  0.9 0.04 0  0.92 0.04 0  0.9399999999999999 0.04 0  0.96 0.04 0  0.98 0.04 0  1 0.04 0  0 0.06 0  0.02 0.06 0  0.04 0.06 0  0.06 0.06 0  0.08 0.06 0  0.1 0.06 0  0.12 0.06 0  0.14 0.06 0  0.16 0.06 0  0.18 0.06 0  0.2 0.06 0  0.22 0.06 0  0.24 0.06 0  0.26 0.06 0  0.28 0.06 0  0.3 0.06 0  0.32 0.06 0  0.34 0.06 0  0.36 0.06 0  0.38 0.06 0  0.4 0.06 0  0.42 0.06 0  0.44 0.06 0  0.46 0.06 0  0.48 0.06 0  0.5 0.06 0  0.52 0.06 0  0.54 0.06 0  0.5600000000000001 0.06 0  0.58 0.06 0  0.6 0.06 0  0.62 0.06 0  0.64 0.06 0  0.66 0.06 0  0.68 0.06 0  0.7 0.06 0  0.72 0.06 0  0.74 0.06 0  0.76 0.06 0  0.78 0.06 0  0.8 0.06 0  0.82 0.06 0  0.84 0.06 0  0.86 0.06 0  0.88 0.06 0  0.9 0.06 0  0.92 0.06 0  0.9399999999999999 0.06 0  0.96 0.06 0  0.98 0.06 0  1 0.06 0  0 0.08 0  0.02 0.08 0  0.04 0.08 0  0.06 0.08 0  0.08 0.08 0  0.1 0.08 0  0.12 0.08 0  0.14 0.08 0  0.16 0.08 0  0.18 0.08 0  0.2 0.08 0  0.22 0.08 0  0.24 0.08 0  0.26 0.08 0  0.28 0.08 0  0.3 0.08 0  0.32 0.08 0  0.34 0.08 0  0.36 0.08 0  0.38 0.08 0  0.4 0.08 0  0.42 0.08 0  0.44 0.08 0  0.46 0.08 0  0.48 0.08 0  0.5 0.08 0  0.52 0.08 0  0.54 0.08 0  0.5600000000000001 0.08 0  0.58 0.08 0  0.6 0.08 0  0.62 0.08 0  0.64 0.08 0  0.66 0.08 0  0.68 0.08 0  0.7 0.08 0  0.72 0.08 0  0.74 0.08 0  0.76 0.08 0  0.78 0.08 0  0.8 0.08 0  0.82 0.08 0  0.84 0.08 0  0.86 0.08 0  0.88 0.08 0  0.9 0.08 0  0.92 0.08 0  0.9399999999999999 0.08 0  0.96 0.08 0  0.98 0.08 0  1 0.08 0  0 0.1 0  0.02 0.1 0  0.04 0.1 0  0.06 0.1 0  0.08 0.1 0  0.1 0.1 0  0.12 0.1 0  0.14 0.1 0  0.16 0.1 0  0.18 0.1 0  0.2 0.1 0  0.22 0.1 0  0.24 0.1 0  0.26 0.1 0  0.28 0.1 0  0.3 0.1 0  0.32 0.1 0  0.34 0.1 0  0.36 0.1 0  0.38 0.1 0  0.4 0.1 0  0.42 0.1 0  0.44 0.1 0  0.46 0.1 0  0.48 0.1 0  0.5 0.1 0  0.52 0.1 0  0.54 0.1 0  0.5600000000000001 0.1 0  0.58 0.1 0  0.6 0.1 0  0.62 0.1 0  0.64 0.1 0  0.66 0.1 0  0.68 0.1 0  0.7 0.1 0  0.72 0.1 0  0.74 0.1 0  0.76 0.1 0  0.78 0.1 0  0.8 0.1 0  0.82 0.1 0  0.84 0.1 0  0.86 0.1 0  0.88 0.1 0  0.9 0.1 0  0.92 0.1 0  0.9399999999999999 0.1 0  0.96 0.1 0  0.98 0.1 0  1 0.1 0  0 0.12 0  0.02 0.12 0  0.04 0.12 0  0.06 0.12 0  0.08 0.12 0  0.1 0.12 0  0.12 0.12 0  0.14 0.12 0  0.16 0.12 0  0.18 0.12 0  0.2 0.12 0  0.22 0.12 0  0.24 0.12 0  0.26 0.12 0  0.28 0.12 0  0.3 0.12 0  0.32 0.12 0  0.34 0.12 0  0.36 0.12 0  0.38 0.12 0  0.4 0.12 0  0.42 0.12 0  0.44 0.12 0  0.46 0.12 0  0.48 0.12 0  0.5 0.12 0  0.52 0.12 0  0.54 0.12 0  0.5600000000000001 0.12 0  0.58 0.12 0  0.6 0.12 0  0.62 0.12 0  0.64 0.12 0  0.66 0.12 0  0.68 0.12 0  0.7 0.12 0  0.72 0.12 0  0.74 0.12 0  0.76 0.12 0  0.78 0.12 0  0.8 0.12 0  0.82 0.12 0  0.84 0.12 0  0.86 0.12 0  0.88 0.12 0  0.9 0.12 0  0.92 0.12 0  0.9399999999999999 0.12 0  0.96 0.12 0  0.98 0.12 0  1 0.12 0  0 0.14 0  0.02 0.14 0  0.04 0.14 0  0.06 0.14 0  0.08 0.14 0  0.1 0.14 0  0.12 0.14 0  0.14 0.14 0  0.16 0.14 0  0.18 0.14 0  0.2 0.14 0  0.22 0.14 0  0.24 0.14 0  0.26 0.14 0  0.28 0.14 0  0.3 0.14 0  0.32 0.14 0  0.34 0.14 0  0.36 0.14 0  0.38 0.14 0  0.4 0.14 0  0.42 0.14 0  0.44 0.14 0  0.46 0.14 0  0.48 0.14 0  0.5 0.14 0  0.52 0.14 0  0.54 0.14 0  0.5600000000000001 0.14 0  0.58 0.14 0  0.6 0.14 0  0.62 0.14 0  0.64 0.14 0  0.66 0.14 0  0.68 0.14 0  0.7 0.14 0  0.72 0.14 0  0.74 0.14 0  0.76 0.14 0  0.78 0.14 0  0.8 0.14 0  0.82 0.14 0  0.84 0.14 0  0.86 0.14 0  0.88 0.14 0  0.9 0.14 0  0.92 0.14 0  0.9399999999999999 0.14 0  0.96 0.14 0  0.98 0.14 0  1 0.14 0  0 0.16 0  0.02 0.16 0  0.04 0.16 0  0.06 0.16 0  0.08 0.16 0  0.1 0.16 0  0.12 0.16 0  0.14 0.16 0  0.16 0.16 0  0.18 0.16 0  0.2 0.16 0  0.22 0.16 0  0.24 0.16 0  0.26 0.16 0  0.28 0.16 0  0.3 0.16 0  0.32 0.16 0  0.34 0.16 0  0.36 0.16 0  0.38 0.16 0  0.4 0.16 0  0.42 0.16 0  0.44 0.16 0  0.46 0.16 0  0.48 0.16 0  0.5 0.16 0  0.52 0.16 0  0.54 0.16 0  0.5600000000000001 0.16 0  0.58 0.16 0  0.6 0.16 0  0.62 0.16 0  0.64 0.16 0  0.66 0.16 0  0.68 0.16 0  0.7 0.16 0  0.72 0.16 0  0.74 0.16 0  0.76 0.16 0  0.78 0.16 0  0.8 0.16 0  0.82 0.16 0  0.84 0.16 0  0.86 0.16 0  0.88 0.16 0  0.9 0.16 0  0.92 0.16 0  0.9399999999999999 0.16 0  0.96 0.16 0  0.98 0.16 0  1 0.16 0  0 0.18 0  0.02 0.18 0  0.04 0.18 0  0.06 0.18 0  0.08 0.18 0  0.1 0.18 0  0.12 0.18 0  0.14 0.18 0  0.16 0.18 0  0.18 0.18 0  0.2 0.18 0  0.22 0.18 0  0.24 0.18 0  0.26 0.18 0  0.28 0.18 0  0.3 0.18 0  0.32 0.18 0  0.34 0.18 0  0.36 0.18 0  0.38 0.18 0  0.4 0.18 0  0.42 0.18 0  0.44 0.18 0  0.46 0.18 0  0.48 0.18 0  0.5 0.18 0  0.52 0.18 0  0.54 0.18 0  0.5600000000000001 0.18 0  0.58 0.18 0  0.6 0.18 0  0.62 0.18 0  0.64 0.18 0  0.66 0.18 0  0.68 0.18 0  0.7 0.18 0  0.72 0.18 0  0.74 0.18 0  0.76 0.18 0  0.78 0.18 0  0.8 0.18 0  0.82 0.18 0  0.84 0.18 0  0.86 0.18 0  0.88 0.18 0  0.9 0.18 0  0.92 0.18 0  0.9399999999999999 0.18 0  0.96 0.18 0  0.98 0.18 0  1 0.18 0  0 0.2 0  0.02 0.2 0  0.04 0.2 0  0.06 0.2 0  0.08 0.2 0  0.1 0.2 0  0.12 0.2 0  0.14 0.2 0  0.16 0.2 0  0.18 0.2 0  0.2 0.2 0  0.22 0.2 0  0.24 0.2 0  0.26 0.2 0  0.28 0.2 0  0.3 0.2 0  0.32 0.2 0  0.34 0.2 0  0.36 0.2 0  0.38 0.2 0  0.4 0.2 0  0.42 0.2 0  0.44 0.2 0  0.46 0.2 0  0.48 0.2 0  0.5 0.2 0  0.52 0.2 0  0.54 0.2 0  0.5600000000000001 0.2 0  0.58 0.2 0  0.6 0.2 0  0.62 0.2 0  0.64 0.2 0  0.66 0.2 0  0.68 0.2 0  0.7 0.2 0  0.72 0.2 0  0.74 0.2 0  0.76 0.2 0  0.78 0.2 0  0.8 0.2 0  0.82 0.2 0  0.84 0.2 0  0.86 0.2 0  0.88 0.2 0  0.9 0.2 0  0.92 0.2 0  0.9399999999999999 0.2 0  0.96 0.2 0  0.98 0.2 0  1 0.2 0  0 0.22 0  0.02 0.22 0  0.04 0.22 0  0.06 0.22 0  0.08 0.22 0  0.1 0.22 0  0.12 0.22 0  0.14 0.22 0  0.16 0.22 0  0.18 0.22 0  0.2 0.22 0  0.22 0.22 0  0.24 0.22 0  0.26 0.22 0  0.28 0.22 0  0.3 0.22 0  0.32 0.22 0  0.34 0.22 0  0.36 0.22 0  0.38 0.22 0  0.4 0.22 0  0.42 0.22 0  0.44 0.22 0  0.46 0.22 0  0.48 0.22 0  0.5 0.22 0  0.52 0.22 0  0.54 0.22 0  0.5600000000000001 0.22 0  0.58 0.22 0  0.6 0.22 0  0.62 0.22 0  0.64 0.22 0  0.66 0.22 0  0.68 0.22 0  0.7 0.22 0  0.72 0.22 0  0.74 0.22 0  0.76 0.22 0  0.78 0.22 0  0.8 0.22 0  0.82 0.22 0  0.84 0.22 0  0.86 0.22 0  0.88 0.22 0  0.9 0.22 0  0.92 0.22 0  0.9399999999999999 0.22 0  0.96 0.22 0  0.98 0.22 0  1 0.22 0  0 0.24 0  0.02 0.24 0  0.04 0.24 0  0.06 0.24 0  0.08 0.24 0  0.1 0.24 0  0.12 0.24 0  0.14 0.24 0  0.16 0.24 0  0.18 0.24 0  0.2 0.24 0  0.22 0.24 0  0.24 0.24 0  0.26 0.24 0  0.28 0.24 0  0.3 0.24 0  0.32 0.24 0  0.34 0.24 0  0.36 0.24 0  0.38 0.24 0  0.4 0.24 0  0.42 0.24 0  0.44 0.24 0  0.46 0.24 0  0.48 0.24 0  0.5 0.24 0  0.52 0.24 0  0.54 0.24 0  0.5600000000000001 0.24 0  0.58 0.24 0  0.6 0.24 0  0.62 0.24 0  0.64 0.24 0  0.66 0.24 0  0.68 0.24 0  0.7 0.24 0  0.72 0.24 0  0.74 0.24 0  0.76 0.24 0  0.78 0.24 0  0.8 0.24 0  0.82 0.24 0  0.84 0.24 0  0.86 0.24 0  0.88 0.24 0  0.9 0.24 0  0.92 0.24 0  0.9399999999999999 0.24 0  0.96 0.24 0  0.98 0.24 0  1 0.24 0  0 0.26 0  0.02 0.26 0  0.04 0.26 0  0.06 0.26 0  0.08 0.26 0  0.1 0.26 0  0.12 0.26 0  0.14 0.26 0  0.16 0.26 0  0.18 0.26 0  0.2 0.26 0  0.22 0.26 0  0.24 0.26 0  0.26 0.26 0  0.28 0.26 0  0.3 0.26 0  0.32 0.26 0  0.34 0.26 0  0.36 0.26 0  0.38 0.26 0  0.4 0.26 0  0.42 0.26 0  0.44 0.26 0  0.46 0.26 0  0.48 0.26 0  0.5 0.26 0  0.52 0.26 0  0.54 0.26 0  0.5600000000000001 0.26 0  0.58 0.26 0  0.6 0.26 0  0.62 0.26 0  0.64 0.26 0  0.66 0.26 0  0.68 0.26 0  0.7 0.26 0  0.72 0.26 0  0.74 0.26 0  0.76 0.26 0  0.78 0.26 0  0.8 0.26 0  0.82 0.26 0  0.84 0.26 0  0.86 0.26 0  0.88 0.26 0  0.9 0.26 0  0.92 0.26 0  0.9399999999999999 0.26 0  0.96 0.26 0  0.98 0.26 0  1 0.26 0  0 0.28 0  0.02 0.28 0  0.04 0.28 0  0.06 0.28 0  0.08 0.28 0  0.1 0.28 0  0.12 0.28 0  0.14 0.28 0  0.16 0.28 0  0.18 0.28 0  0.2 0.28 0  0.22 0.28 0  0.24 0.28 0  0.26 0.28 0  0.28 0.28 0  0.3 0.28 0  0.32 0.28 0  0.34 0.28 0  0.36 0.28 0  0.38 0.28 0  0.4 0.28 0  0.42 0.28 0  0.44 0.28 0  0.46 0.28 0  0.48 0.28 0  0.5 0.28 0  0.52 0.28 0  0.54 0.28 0  0.5600000000000001 0.28 0  0.58 0.28 0  0.6 0.28 0  0.62 0.28 0  0.64 0.28 0  0.66 0.28 0  0.68 0.28 0  0.7 0.28 0  0.72 0.28 0  0.74 0.28 0  0.76 0.28 0  0.78 0.28 0  0.8 0.28 0  0.82 0.28 0  0.84 0.28 0  0.86 0.28
[...]
<PointData  Scalars="f_17"> 
<DataArray  type="Float64"  Name="f_17"  format="ascii">1.0000000000000000e+00  9.8966173463702478e-01  9.7931668304627362e-01  9.6895744730343347e-01  9.5857600052916903e-01  9.4816364681630771e-01  9.3771098615438653e-01  9.2720787997659293e-01  9.1664341608055255e-01  9.0600587238286268e-01  8.9528267913015669e-01  8.8446037921475495e-01  8.7352458622561979e-01  8.6245993982894820e-01  8.5125005802294906e-01  8.3987748574852961e-01  8.2832363926009211e-01  8.1656874556555625e-01  8.0459177612809663e-01  7.9237037387869413e-01  7.7988077241162590e-01  7.6709770601550609e-01  7.5399430891876951e-01  7.4054200178501872e-01  7.2671036305971137e-01  7.1246698221740412e-01  6.9777729125010712e-01  6.8260436981999528e-01  6.6690871830079668e-01  6.5064799134870754e-01  6.3377668252821862e-01  6.1624574765638196e-01  5.9800215060374950e-01  5.7898830982393412e-01  5.5914141614258062e-01  5.3839258116699429e-01  5.1666575922118974e-01  4.9387636088809606e-01  4.6992943778424551e-01  4.4471725676289692e-01  4.1811598006735706e-01  3.8998099247685880e-01  3.6014009800634084e-01  3.2838319386574732e-01  2.9444574671124590e-01  2.5798044518891944e-01  2.1850374233077793e-01  1.7528115753257018e-01  1.2703667964659976e-01  7.1064968186570071e-02  0.0000000000000000e+00  1.0000000000000000e+00  9.8966524358225694e-01  9.7932369561729304e-01  9.6896799055407856e-01  9.5859012206564642e-01  9.4818141246487719e-01  9.3773247981629204e-01  9.2723320410691812e-01  9.1667269243666705e-01  9.0603924296089844e-01  8.9532030727675960e-01  8.8450245092268021e-01  8.7357131163123936e-01  8.6251155493645504e-01  8.5130682668655411e-01  8.3993970195130341e-01  8.2839162973687996e-01  8.1664287282816661e-01  8.0467244196434762e-01  7.9245802341369731e-01  7.7997589884094432e-01  7.6720085614694444e-01  7.5410608969442006e-01  7.4066308800042002e-01  7.2684150655615176e-01  7.1260902290158368e-01  6.9793117039971042e-01  6.8277114627452917e-01  6.6708958832932364e-01  6.5084431325210190e-01  6.3399000740676981e-01  6.1647785830529334e-01  5.9825511126956687e-01  5.7926453069238959e-01  5.5944373814252013e-01  5.3872438931853395e-01  5.1703113693951619e-01  4.9428030447102134e-01  4.7037816179810743e-01  4.4521864116380228e-01  4.1868024679737931e-01  3.9062177077559102e-01  3.6087618586557318e-01  3.2924165696375540e-01  2.9546783034248081e-01  2.5923412940926516e-01  2.2011436223325959e-01  1.7751935275108108e-01  1.3061699535442159e-01  7.8317632406920870e-02  1.9998666693333080e-02  1.0000000000000000e+00  9.8967577689965602e-01  9.7934480344231856e-01  9.6899976584886005e-01  9.5863270990498428e-01  9.4823501034063462e-01  9.3779733876554827e-01  9.2730963050293380e-01  9.1676105031588973e-01  9.0613995684527482e-01  8.9543386550062198e-01  8.8462940950166735e-01  8.7371229873029999e-01  8.6266727601145232e-01  8.5147807039254786e-01  8.4012734693201341e-01  8.2859665243564118e-01  8.1686635649236383e-01  8.0491558705465949e-01  7.9272215967883630e-01  7.8026249938094250e-01  7.6751155386749348e-01  7.5444269665679764e-01  7.4102761830360886e-01  7.2723620356025365e-01  7.1303639182900247e-01  6.9839401765330711e-01  6.8327262721933002e-01  6.6763326583895433e-01  6.5143423008563139e-01  6.3463077654990885e-01  6.1717477692482370e-01  5.9901430611314876e-01  5.8009314596846406e-01  5.6035018170502471e-01  5.3971866030106086e-01  5.1812526943975501e-01  4.9548898030000416e-01  4.7171957580212870e-01  4.4671575484978643e-01  4.2036265888235702e-01  3.9252860569492121e-01  3.6306073680186396e-01  3.3177920713538978e-01  2.9846955857407181e-01  2.6287335365429243e-01  2.2467913630581304e-01  1.8352299257357965e-01  1.3903135714265741e-01  9.1005655155304732e-02  3.9989334186634161e-02  1.0000000000000000e+00  9.8969329336266976e-01  9.7937991382722700e-01  9.6905262902939437e-01  9.5870356846319371e-01  9.4832419264768208e-01  9.3790526154382459e-01  9.2743680205572876e-01  9.1690807447348888e-01  9.0630753766365857e-01  8.9562281276582745e-01  8.8484064511481175e-01  8.7394686407136524e-01  8.6292634040504568e-01  8.5176294082757575e-01  8.4043947922127982e-01  8.2893766404269087e-01  8.1723804130365096e-01  8.0531993243814648e-01  7.9316136624897005e-01  7.8073900398939688e-01  7.6802805646537764e-01  7.5500219183569961e-01  7.4163343253142788e-01  7.2789203939909919e-01  7.1374638077855956e-01  6.9916278373485663e-01  6.8410536404701916e-01  6.6853583077912471e-01  6.5241326027417879e-01  6.3569383315808214e-01  6.1833052634032681e-01  6.0027274994849689e-01  5.8146591650812540e-01  5.6185092632619249e-01  5.4136354879288151e-01  5.1993367405380142e-01  4.9748440325326482e-01  4.7393093880409665e-01  4.4917923061123055e-01  4.2312433458339316e-01  3.9564845812792387e-01  3.6661873323573835e-01  3.3588494293608179e-01  3.0327790274572208e-01  2.6861036548273726e-01  2.3168506224035709e-01  1.9232054679917132e-01  1.5041716459230414e-01  1.0610040395032234e-01  5.9964006479444588e-02  1.0000000000000000e+00  9.8971771546326881e-01  9.7942886835111165e-01  9.6912633904171974e-01  9.5880237254408163e-01  9.4844854805508749e-01  9.3805574802306424e-01  9.2761412645865327e-01  9.1711307628717964e-01  9.0654119553213963e-01  8.9588625209659023e-01  8.8513514688152073e-01  8.7427387494991182e-01  8.6328748441122227e-01  8.5216003266183005e-01  8.4087453957083558e-01  8.2941293714590225e-01  8.1775601514853158e-01  8.0588336205008171e-01  7.9377330062627449e-01  7.8140281737554929e-01  7.6874748481146160e-01  7.5578137551636537e-01  7.4247696664689833e-01  7.2880503334392510e-01  7.1473452921174163e-01  7.0023245168290693e-01  6.8526368966376627e-01  6.6979085034774988e-01  6.5377406147447781e-01  6.3717074458981027e-01  6.1993535401881927e-01  6.0201907530987253e-01  5.8336947588864108e-01  5.6393009969408503e-01  5.4363999691971521e-01  5.2243318020955931e-01  5.0023800089135795e-01  4.7697644533591332e-01  4.5256336682059167e-01  4.2690570129758260e-01  3.9990178394871972e-01  3.7144102220413788e-01  3.4140445732044256e-01  3.0966728537208010e-01  2.7610542036358365e-01  2.4060994815494646e-01  2.0311593344135306e-01  1.6365429342410695e-01  1.2243148162319158e-01  7.9914693969172695e-02  1.0000000000000000e+00  9.8974893281753784e-01  9.7949144458768200e-01  9.6922055944696162e-01  9.5892866933327248e-01  9.4860750436058183e-01  9.3824810278781279e-01  9.2784078034453898e-01  9.1737509870237888e-01  9.0683983288359504e-01  8.9622293738689862e-01  8.8551151079172186e-01  8.7469175857910353e-01  8.6374895388026307e-01  8.5266739583247386e-01  8.4143036518509395e-01  8.3002007675556777e-01  8.1841762828464915e-01  8.0660294518074105e-01  7.9455472057351828e-01  7.8225035001520549e-01  7.6966586007214133e-01  7.5677582993744807e-01  7.4355330506567707e-01  7.2996970168025344e-01  7.1599470083301431e-01  7.0159613050203673e-01  6.8673983400173666e-01  6.7138952275506059e-01  6.5550661125716958e-01  6.3905003187387821e-01  6.2197602702278920e-01  6.0423791638202096e-01  5.8578583723998556e-01  5.6656645725404620e-01  5.4652266127512339e-01  5.2559321847798179e-01  5.0371244448830943e-01  4.8080988844633021e-01  4.5681010210213174e-01  4.3163259595106307e-01  4.0519217116345890e-01  3.7739996043335372e-01  3.4816575381825077e-01  3.1740257655676213e-01  2.8503506177874111e-01  2.5101385513262836e-01  2.1533867068764592e-01  1.7809132585207527e-01  1.3947404560812418e-01  9.9833416646828155e-02  1.0000000000000000e+00  9.8978680382517348e-01  9.7956735807720130e-01  9.6933486078634867e-01  9.5908188141273343e-01  9.4880033231769767e-01  9.3848143987498067e-01  9.2811571502168966e-01  9.1769292305633043e-01  9.0720205249142838e-01  8.9663128276114035e-01  8.8596795057174116e-01  8.7519851466647414e-01  8.6430851875660142e-01  8.5328255234761918e-01  8.4210420916326023e-01  8.3075604283971505e-01  8.1921951952802219e-01  8.0747496700344223e-01  7.9550151983647144e-01  7.8327706013085785e-01  7.7077815327973043e-01  7.5797997813238083e-01  7.4485625090302909e-01  7.3137914209203680e-01  7.1751918563493478e-01  7.0324517945440401e-01  6.8852407658004411e-01  6.7332086604477526e-01  6.5759844290434311e-01  6.4131746702049974e-01  6.2443621079948997e-01  6.0691039704586391e-01  5.8869302973387050e-01  5.6973422322522149e-01  5.4998103993059400e-01  5.2937735367623528e-01  5.0786376777810016e-01  4.8537763570727632e-01  4.6185326240133667e-01  4.3722241200499901e-01  4.1141532204230674e-01  3.8436253601539733e-01  3.5599802651097151e-01  3.2626428692139064e-01  2.9512027671968905e-01  2.6255315742294294e-01  2.2859426966736396e-01  1.9333803906515371e-01  1.5695852026990717e-01  1.1971220728891938e-01  1.0000000000000000e+00  9.8983115692994328e-01  9.7965626446831144e-01  9.6946872354413516e-01  9.5926131063271114e-01  9.4902615052635664e-01  9.3875468878744128e-01  9.2843766371673231e-01  9.1806507766965795e-01  9.0762616755145276e-01  8.9710937431736848e-01  8.8650231129634038e-01  8.7579173114619713e-01  8.6496349123622918e-01  8.5400251723890075e-01  8.4289276469695518e-01  8.3161717831523285e-01  8.2015764870853869e-01  8.0849496631827922e-01  7.9660877219216963e-01  7.8447750530434301e-01  7.7207834607971870e-01  7.5938715577958971e-01  7.4637841140983585e-01  7.3302513583612161e-01  7.1929882284263424e-01  7.0516935696853666e-01  6.9060492812349927e-01  6.7557194125657027e-01  6.6003492178544398e-01  6.4395641816707505e-01  6.2729690402759586e-01  6.1001468385286484e-01  5.9206580864639524e-01  5.7340401160235788e-01  5.5398067933593520e-01  5.3374488247693275e-01  5.1264350180015017e-01  4.9062150443073904e-01  4.6762245158076587e-01  4.4358935788532738e-01  4.1846607581435691e-01  3.9219944793242395e-01  3.6474254915691667e-01  3.3605940743513546e-01  3.0613158444146338e-01  2.7496679244502664e-01  2.4260910487922119e-01  2.0914902370184668e-01  1.7472963524400531e-01  1.3954311464423649e-01  1.0000000000000000e+00  9.8988179186020653e-01  9.7975776189002173e-01  9.6962154162054137e-01  9.5946614273144482e-01  9.4928393128255095e-01  9.3906660167523637e-01  9.2880515020491794e-01  9.1848984806372569e-01  9.0811021365088718e-01  8.9765498404584732e-01  8.8711208549547471e-01  8.7646860276206973e-01  8.6571074717366725e-01  8.5482382321280281e-01  8.4379219347495882e-01  8.3259924182399925e-01  8.2122733456991426e-01  8.0965777949533069e-01  7.9787078256326327e-01  7.8584540215192888e-01  7.7355950068663915e-01  7.6098969357881086e-01  7.4811129544509380e-01  7.3489826367558841e-01  7.2132313956349492e-01  7.0735698741985575e-01  6.9296933240554148e-01  6.7812809826028464e-01  6.6279954675528785e-01  6.4694822162766452e-01  6.3053690109456839e-01  6.1352656496767044e-01  5.9587638514363606e-01  5.7754375218362830e-01  5.5848435629993431e-01  5.3865234899622638e-01  5.1800062270888814e-01  4.9648126108886281e-01  4.7404623308767263e-01  4.5064843040527369e-01  4.2624317936144318e-01  4.0079039065833005e-01  3.7425753236177706e-01  3.4662359792507275e-01  3.1788414614957450e-01  2.8805724141687994e-01  2.5718963465551814e-01  2.2536176049755974e-01  1.9268924480567526e-01  1.5931820661424598e-01  1.0000000000000000e+00  9.8993848095854220e-01  9.7987139358437980e-01  9.6979262626888374e-01  9.5969545261948019e-01  9.4957250728559295e-01  9.3941576156684736e-01  9.2921649868992473e-01  9.1896528863926574e-01  9.0865196242658841e-01  8.9826558568426285e-01  8.8779443146782089e-01  8.7722595215350829e-01  8.6654675031819028e-01  8.5574254849175846e-01  8.4479815767719102e-01  8.3369744454164940e-01  8.2242329719478291e-01  8.1095758948956065e-01  7.9928114380895099e-01  7.8737369234190513e-01  7.7521383690899981e-01  7.6277900747792593e-01  7.5004541962039073e-01  7.3698803131661983e-01  7.2358049972768068e-01  7.0979513885153445e-01  6.9560287938666654e-01  6.8097323268951571e-01  6.6587426148673223e-01  6.5027256106994225e-01  6.3413325616757643e-01  6.1742002070157331e-01  6.0009513039112239e-01  5.8211956191412562e-01  5.6345315739693058e-01  5.4405487974698308e-01  5.2388319315861953e-01  5.0289661430055688e-01  4.8105449318631166e-01  4.5831809766454801e-01  4.3465208927468224e-01  4.1002648517670703e-01  3.8441919002395342e-01  3.5781913443089058e-01  3.3022994585421772e-01  3.0167387171812954e-01  2.7219535531419542e-01  2.4186326856518364e-01  2.1077048717774163e-01  1.7902957342582418e-01  1.0000000000000000e+00  9.9000097062707615e-01  9.7999665079841503e-01  9.6998121045419428e-01  9.5994821025283639e-01  9.4989057910185137e-01  9.3980059152604500e-01  9.2966984478290560e-01  9.1948923563553342e-01  9.0924893669518325e-01  8.9893837224830997e-01  8.8854619348696895e-01  8.7806025306685809e-01  8.6746757892472681e-01  8.5675434729708444e-01  8.4590585489609360e-01  8.3490649021754226e-01  8.2373970398153840e-01  8.1238797874129731e-01  8.0083279774200122e-01  7.8905461317411474e-01  7.7703281404886626e-01  7.6474569403472759e-01  7.5217041974175858e-01  7.3928300013780857e-01  7.2605825804303892e-01  7.1246980499865353e-01  6.9849002127094628e-01  6.8409004337090740e-01  6.6923976229301996e-01  6.5390783677019126e-01  6.3806172728962984e-01  6.2166775852358702e-01  6.0469122032946243e-01  5.8709652071624041e-01  5.6884740831606284e-01  5.4990728707224024e-01  5.3023965209395085e-01  5.0980868274095892e-01  4.8858003633406555e-01  4.6652189193508836e-01  4.4360629547001301e-01  4.1981084994950302e-01  3.9512076957298303e-01  3.6953126281405385e-01  3.4305011438285454e-01  3.1570019070552130e-01  2.8752140665930248e-01  2.5857150840992271e-01  2.2892495093903206e-01  1.9866933079506122e-01  1.0000000000000000e+00  9.9006898288723033e-01  9.8013297591530590e-01  9.7018645358545741e-01  9.6022328701903537e-01  9.5023672328247000e-01  9.4021936460525257e-01  9.3016314742289330e-01  9.2005932117915545e-01  9.0989842682567601e-01  8.9967027496254981e-01  8.8936392357083149e-01  8.7896765529761522e-01  8.6846895426707582e-01  8.5785448240743079e-01  8.4711005530538808e-01  8.3622061762774380e-01  8.2517021818628700e-01  8.1394198476951529e-01  8.0251809892604209e-01  7.9087977096405482e-01  7.7900721553412200e-01  7.6687962829588729e-01  7.5447516434174744e-01  7.4177091927396266e-01  7.2874291412093617e-01  7.1536608565276716e-01  7.0161428414050075e-01  6.8746028122910308e-01  6.7287579140047138e-01  6.5783151153812625e-01  6.4229718442741857e-01  6.2624169369982186e-01  6.0963319982621977e-01  5.9243932934312293e-01  5.7462743258818194e-01  5.5616492878652213e-01  5.3701976118404160e-01  5.1716098862648574e-01  4.9655954265878921e-01  4.7518917931352977e-01  4.5302764973974974e-01  4.3005809992008509e-01  4.0627068190039223e-01  3.8166431158899827e-01  3.5624843715185528e-01  3.3004458909916312e-01  3.0308738300049470e-01  2.7542457379908125e-01  2.4711577517175459e-01  2.1822962308086932e-01  1.0000000000000000e+00  9.9014221704221128e-01  9.8027976579512244e-01  9.7040744656875455e-01  9.6051946255810716e-01  9.5060940103111669e-01  9.4067021446406607e-01  9.3069420157721650e-01  9.2067298822739940e-01  9.1059750812008888e-01  9.0045798331130800e-01  8.9024390448007740e-01  8.7994401096544872e-01  8.6954627057928613e-01  8.5903785922777454e-01  8.4840514040239490e-01  8.3763364463641177e-01  8.2670804906767925e-01  8.1561215730539749e-01  8.0432887987047064e-01  7.9284021557037121e-01  7.8112723428505748e-01  7.6917006178693659e-01  7.5694786740330322e-01  7.4443885556434997e-01  7.3162026257656698e-01  7.1846836033597150e-01  7.0495846916760008e-01  6.9106498257039883e-01  6.7676140738743462e-01  6.6202042384097215e-01  6.4681397100267091e-01  6.3111336464053835e-01  6.1488945601531453e-01  5.9811284208372628e-01  5.8075413964984446e-01  5.6278433814686302e-01  5.4417524764320735e-01  5.2490005983436239e-01  5.0493403935493231e-01  4.8425535941682124e-01  4.6284608768810942e-01  4.4069331307478182e-01  4.1779037901075938e-01  3.9413815193654661e-01  3.6974620502328925e-01  3.4463374192105406e-01  3.1883003647466734e-01  2.9237414505965120e-01  2.6531368861938004e-01  2.3770262642713458e-01  1.0000000000000000e+00  9.9022035142649056e-01  9.8043637529100813e-01  9.7064321712588819e-01  9.6083543193970866e-01  9.5100696731777967e-01  9.4115114652183540e-01  9.3126065156099813e-01  9.2132750621140080e-01  9.1134305896930823e-01  9.0129796593239597e-01  8.9118217361661978e-01  8.8098490173235833e-01  8.7069462596404557e-01  8.6029906082335028e-01  8.4978514267831251e-01  8.3913901310133687e-01  8.2834600272950187e-01  8.1739061589372231e-01  8.0625651635193707e-01  7.9492651455942376e-01  7.8338255703120208e-01  7.7160571850298487e-01  7.5957619778522600e-01  7.4727331843794542e-01  7.3467553568232480e-01  7.2176045132049016e-01  7.0850483887120963e-01  6.9488468166166462e-01  6.8087522726000149e-01  6.6645106240501617e-01  6.5158621349897150e-01  6.3625427877860652e-01  6.2042859945104523e-01  6.0408247832652162e-01  5.8718945569672754e-01  5.6972365321140317e-01  5.5166019698895064e-01  5.3297573067939252e-01  5.1364902697597070e-01  4.9366170118100494e-01  4.7299902166502072e-01  4.5165079809980385e-01  4.2961230812053069e-01  4.0688519641886967e-01  3.8347824900881333e-01  3.5940791468480859e-01  3.3469842507713921e-01  3.0938136791961818e-01  2.8349460973134660e-01  2.5708055189215512e-01  1.0000000000000000e+00  9.9030304522506207e-01  9.8060212090507692e-01  9.7089273532243103e-01  9.6116981311819538e-01  9.5142768033652370e-01  9.4166004951620719e-01  9.3186000481897113e-01  9.2201998719050682e-01  9.1213177955894453e-01  9.0218649208684121e-01  8.9217454750733394e-01  8.8208566659349352e-01  8.7190885383287364e-01  8.6163238340784265e-01  8.5124378561766179e-01  8.4072983392199674e-01  8.3007653283944116e-01  8.1926910700095290e-01  8.0829199173960042e-01  7.9712882569797039e-01  7.8576244605700241e-01  7.7417488713956828e-01  7.6234738332442420e-01  7.5026037742762486e-01  7.3789353597644858e-01  7.2522577312335990e-01  7.1223528533288571e-01  6.9889959943048807e-01  6.8519563713582665e-01  6.7109979981557022e-01  6.5658807787807749e-01  6.4163618997586869e-01  6.2621975794303331e-01  6.1031452410233411e-01  5.9389661811142302e-01  5.7694288069177324e-01  5.5943125111858727e-01  5.4134122385151795e-01  5.2265437663292147e-01  5.0335496713493932e-01  4.8343058711058767e-01  4.6287285141519741e-01  4.4167808403076442e-01  4.1984794502361394e-01  3.9738992332412681e-01  3.7431760448131435e-01  3.5065061643406098e-01  3.2641416750005642e-01  3.0163812571362120e-01  2.7635564856411376e-01  1.0000000000000000e+00  9.9038994034509253e-01  9.8077628454850985e-01  9.7115491925035602e-01  9.6152115459000986e-01  9.5186971120914476e-01  9.4219470734519362e-01  9.3248964602040774e-01  9.2274740233880737e-01  9.1296021091291713e-01  9.0311965345459078e-01  8.9321664657998545e-01  8.8324142989846477e-01  8.7318355447962126e-01  8.6303187182271168e-01  8.5277452348969884e-01  8.4239893160819723e-01  8.3189179050558737e-01  8.2123905980240253e-01  8.1042595937413575e-01  7.9943696668862863e-01  7.8825581714444304e-01  7.7686550817767630e-01  7.6524830807474176e-01  7.5338577063112122e-01  7.4125875703569877e-01  7.2884746664140532e-01  7.1613147860937576e-01  7.0308980678750088e-01  6.8970097060399882e-01  6.7594308521559543e-01  6.6179397463250356e-01  6.4723131201934869e-01  6.3223279179326908e-01  6.1677633842972290e-01  6.0084035692650883e-01  5.8440402950012726e-01  5.6744766206829667e-01  5.4995308211467264e-01  5.3190408628522712e-01  5.1328693115395330e-01  4.9409085369197603e-01  4.7430859893703420e-01  4.5393692144169689e-01  4.3297701519871290e-01  4.1143481577356195e-01  3.8932111130519892e-01  3.6665139978353550e-01  3.4344544261964999e-01  3.1972649157909833e-01  2.9552020666133955e-01  1.0000000000000000e+00  9.9048066332317075e-01  9.8095811737178684e-01  9.7142864081303282e-01  9.6188794318190318e-01  9.5233115384258904e-01  9.4275281107834985e-01  9.3314685132846975e-01  9.2350659859846318e-01  9.1382475407977282e-01  9.0409338602815836e-01  8.9430391996630776e-01  8.8444712929645686e-01  8.7451312643375168e