<?xml version="1.0"?>
<VTKFile type="UnstructuredGrid"  version="0.1"  >
<UnstructuredGrid>
<Piece  NumberOfPoints="2601" NumberOfCells="5000">
<Points>
<DataArray  type="Float64"  NumberOfComponents="3"  format="ascii">0 0 0  0.02 0 0  0.04 0 0  0.06 0 0  0.08 0 0  0.1 0 0  0.12 0 0  0.14 0 0  0.16 0 0  0.18 0 0  0.2 0 0  0.22 0 0  0.24 0 0  0.26 0 0  0.28 0 0  0.3 0 0  0.32 0 0  0.34 0 0  0.36 0 0  0.38 0 0  0.4 0 0  0.42 0 0  0.44 0 0  0.46 0 0  0.48 0 0  0.5 0 0  0.52 0 0  0.54 0 0  0.5600000000000001 0 0  0.58 0 0  0.6 0 0  0.62 0 0  0.64 0 0  0.66 0 0  0.68 0 0  0.7 0 0  0.72 0 0  0.74 0 0  0.76 0 0  0.78 0 0  0.8 0 0  0.82 0 0  0.84 0 0  0.86 0 0  0.88 0 0  0.9 0 0  0.92 0 0  0.9399999999999999 0 0  0.96 0 0  0.98 0 0  1 0 0  0 0.02 0  0.02 0.02 0  0.04 0.02 0  0.06 0.02 0  0.08 0.02 0  0.1 0.02 0  0.12 0.02 0  0.14 0.02 0  0.16 0.02 0  0.18 0.02 0  0.2 0.02 0  0.22 0.02 0  0.24 0.02 0  0.26 0.02 0  0.28 0.02 0  0.3 0.02 0  0.32 0.02 0  0.34 0.02 0  0.36 0.02 0  0.38 0.02 0  0.4 0.02 0  0.42 0.02 0  0.44 0.02 0  0.46 0.02 0  0.48 0.02 0  0.5 0.02 0  0.52 0.02 0  0.54 0.02 0  0.5600000000000001 0.02 0  0.58 0.02 0  0.6 0.02 0  0.62 0.02 0  0.64 0.02 0  0.66 0.02 0  0.68 0.02 0  0.7 0.02 0  0.72 0.02 0  0.74 0.02 0  0.76 0.02 0  0.78 0.02 0  0.8 0.02 0  0.82 0.02 0  0.84 0.02 0  0.86 0.02 0  0.88 0.02 0  0.9 0.02 0  0.92 0.02 0  0.9399999999999999 0.02 0  0.96 0.02 0  0.98 0.02 0  1 0.02 0  0 0.04 0  0.02 0.04 0  0.04 0.04 0  0.06 0.04 0  0.08 0.04 0  0.1 0.04 0  0.12 0.04 0  0.14 0.04 0  0.16 0.04 0  0.18 0.04 0  0.2 0.04 0  0.22 0.04 0  0.24 0.04 0  0.26 0.04 0  0.28 0.04 0  0.3 0.04 0  0.32 0.04 0  0.34 0.04 0  0.36 0.04 0  0.38 0.04 0  0.4 0.04 0  0.42 0.04 0  0.44 0.04 0  0.46 0.04 0  0.48 0.04 0  0.5 0.04 0  0.52 0.04 0  0.54 0.04 0  0.5600000000000001 0.04 0  0.58 0.04 0  0.6 0.04 0  0.62 0.04 0  0.64 0.04 0  0.66 0.04 0  0.68 0.04 0  0.7 0.04 0  0.72 0.04 0  0.74 0.04 0  0.76 0.04 0  0.78 0.04 0  0.8 0.04 0  0.82 0.04 0  0.84 0.04 0  0.86 0.04 0  0.88 0.04 0  0.9 0.04 0  0.92 0.04 0  0.9399999999999999 0.04 0  0.96 0.04 0  0.98 0.04 0  1 0.04 0  0 0.06 0  0.02 0.06 0  0.04 0.06 0  0.06 0.06 0  0.08 0.06 0  0.1 0.06 0  0.12 0.06 0  0.14 0.06 0  0.16 0.06 0  0.18 0.06 0  0.2 0.06 0  0.22 0.06 0  0.24 0.06 0  0.26 0.06 0  0.28 0.06 0  0.3 0.06 0  0.32 0.06 0  0.34 0.06 0  0.36 0.06 0  0.38 0.06 0  0.4 0.06 0  0.42 0.06 0  0.44 0.06 0  0.46 0.06 0  0.48 0.06 0  0.5 0.06 0  0.52 0.06 0  0.54 0.06 0  0.5600000000000001 0.06 0  0.58 0.06 0  0.6 0.06 0  0.62 0.06 0  0.64 0.06 0  0.66 0.06 0  0.68 0.06 0  0.7 0.06 0  0.72 0.06 0  0.74 0.06 0  0.76 0.06 0  0.78 0.06 0  0.8 0.06 0  0.82 0.06 0  0.84 0.06 0  0.86 0.06 0  0.88 0.06 0  0.9 0.06 0  0.92 0.06 0  0.9399999999999999 0.06 0  0.96 0.06 0  0.98 0.06 0  1 0.06 0  0 0.08 0  0.02 0.08 0  0.04 0.08 0  0.06 0.08 0  0.08 0.08 0  0.1 0.08 0  0.12 0.08 0  0.14 0.08 0  0.16 0.08 0  0.18 0.08 0  0.2 0.08 0  0.22 0.08 0  0.24 0.08 0  0.26 0.08 0  0.28 0.08 0  0.3 0.08 0  0.32 0.08 0  0.34 0.08 0  0.36 0.08 0  0.38 0.08 0  0.4 0.08 0  0.42 0.08 0  0.44 0.08 0  0.46 0.08 0  0.48 0.08 0  0.5 0.08 0  0.52 0.08 0  0.54 0.08 0  0.5600000000000001 0.08 0  0.58 0.08 0  0.6 0.08 0  0.62 0.08 0  0.64 0.08 0  0.66 0.08 0  0.68 0.08 0  0.7 0.08 0  0.72 0.08 0  0.74 0.08 0  0.76 0.08 0  0.78 0.08 0  0.8 0.08 0  0.82 0.08 0  0.84 0.08 0  0.86 0.08 0  0.88 0.08 0  0.9 0.08 0  0.92 0.08 0  0.9399999999999999 0.08 0  0.96 0.08 0  0.98 0.08 0  1 0.08 0  0 0.1 0  0.02 0.1 0  0.04 0.1 0  0.06 0.1 0  0.08 0.1 0  0.1 0.1 0  0.12 0.1 0  0.14 0.1 0  0.16 0.1 0  0.18 0.1 0  0.2 0.1 0  0.22 0.1 0  0.24 0.1 0  0.26 0.1 0  0.28 0.1 0  0.3 0.1 0  0.32 0.1 0  0.34 0.1 0  0.36 0.1 0  0.38 0.1 0  0.4 0.1 0  0.42 0.1 0  0.44 0.1 0  0.46 0.1 0  0.48 0.1 0  0.5 0.1 0  0.52 0.1 0  0.54 0.1 0  0.5600000000000001 0.1 0  0.58 0.1 0  0.6 0.1 0  0.62 0.1 0  0.64 0.1 0  0.66 0.1 0  0.68 0.1 0  0.7 0.1 0  0.72 0.1 0  0.74 0.1 0  0.76 0.1 0  0.78 0.1 0  0.8 0.1 0  0.82 0.1 0  0.84 0.1 0  0.86 0.1 0  0.88 0.1 0  0.9 0.1 0  0.92 0.1 0  0.9399999999999999 0.1 0  0.96 0.1 0  0.98 0.1 0  1 0.1 0  0 0.12 0  0.02 0.12 0  0.04 0.12 0  0.06 0.12 0  0.08 0.12 0  0.1 0.12 0  0.12 0.12 0  0.14 0.12 0  0.16 0.12 0  0.18 0.12 0  0.2 0.12 0  0.22 0.12 0  0.24 0.12 0  0.26 0.12 0  0.28 0.12 0  0.3 0.12 0  0.32 0.12 0  0.34 0.12 0  0.36 0.12 0  0.38 0.12 0  0.4 0.12 0  0.42 0.12 0  0.44 0.12 0  0.46 0.12 0  0.48 0.12 0  0.5 0.12 0  0.52 0.12 0  0.54 0.12 0  0.5600000000000001 0.12 0  0.58 0.12 0  0.6 0.12 0  0.62 0.12 0  0.64 0.12 0  0.66 0.12 0  0.68 0.12 0  0.7 0.12 0  0.72 0.12 0  0.74 0.12 0  0.76 0.12 0  0.78 0.12 0  0.8 0.12 0  0.82 0.12 0  0.84 0.12 0  0.86 0.12 0  0.88 0.12 0  0.9 0.12 0  0.92 0.12 0  0.9399999999999999 0.12 0  0.96 0.12 0  0.98 0.12 0  1 0.12 0  0 0.14 0  0.02 0.14 0  0.04 0.14 0  0.06 0.14 0  0.08 0.14 0  0.1 0.14 0  0.12 0.14 0  0.14 0.14 0  0.16 0.14 0  0.18 0.14 0  0.2 0.14 0  0.22 0.14 0  0.24 0.14 0  0.26 0.14 0  0.28 0.14 0  0.3 0.14 0  0.32 0.14 0  0.34 0.14 0  0.36 0.14 0  0.38 0.14 0  0.4 0.14 0  0.42 0.14 0  0.44 0.14 0  0.46 0.14 0  0.48 0.14 0  0.5 0.14 0  0.52 0.14 0  0.54 0.14 0  0.5600000000000001 0.14 0  0.58 0.14 0  0.6 0.14 0  0.62 0.14 0  0.64 0.14 0  0.66 0.14 0  0.68 0.14 0  0.7 0.14 0  0.72 0.14 0  0.74 0.14 0  0.76 0.14 0  0.78 0.14 0  0.8 0.14 0  0.82 0.14 0  0.84 0.14 0  0.86 0.14 0  0.88 0.14 0  0.9 0.14 0  0.92 0.14 0  0.9399999999999999 0.14 0  0.96 0.14 0  0.98 0.14 0  1 0.14 0  0 0.16 0  0.02 0.16 0  0.04 0.16 0  0.06 0.16 0  0.08 0.16 0  0.1 0.16 0  0.12 0.16 0  0.14 0.16 0  0.16 0.16 0  0.18 0.16 0  0.2 0.16 0  0.22 0.16 0  0.24 0.16 0  0.26 0.16 0  0.28 0.16 0  0.3 0.16 0  0.32 0.16 0  0.34 0.16 0  0.36 0.16 0  0.38 0.16 0  0.4 0.16 0  0.42 0.16 0  0.44 0.16 0  0.46 0.16 0  0.48 0.16 0  0.5 0.16 0  0.52 0.16 0  0.54 0.16 0  0.5600000000000001 0.16 0  0.58 0.16 0  0.6 0.16 0  0.62 0.16 0  0.64 0.16 0  0.66 0.16 0  0.68 0.16 0  0.7 0.16 0  0.72 0.16 0  0.74 0.16 0  0.76 0.16 0  0.78 0.16 0  0.8 0.16 0  0.82 0.16 0  0.84 0.16 0  0.86 0.16 0  0.88 0.16 0  0.9 0.16 0  0.92 0.16 0  0.9399999999999999 0.16 0  0.96 0.16 0  0.98 0.16 0  1 0.16 0  0 0.18 0  0.02 0.18 0  0.04 0.18 0  0.06 0.18 0  0.08 0.18 0  0.1 0.18 0  0.12 0.18 0  0.14 0.18 0  0.16 0.18 0  0.18 0.18 0  0.2 0.18 0  0.22 0.18 0  0.24 0.18 0  0.26 0.18 0  0.28 0.18 0  0.3 0.18 0  0.32 0.18 0  0.34 0.18 0  0.36 0.18 0  0.38 0.18 0  0.4 0.18 0  0.42 0.18 0  0.44 0.18 0  0.46 0.18 0  0.48 0.18 0  0.5 0.18 0  0.52 0.18 0  0.54 0.18 0  0.5600000000000001 0.18 0  0.58 0.18 0  0.6 0.18 0  0.62 0.18 0  0.64 0.18 0  0.66 0.18 0  0.68 0.18 0  0.7 0.18 0  0.72 0.18 0  0.74 0.18 0  0.76 0.18 0  0.78 0.18 0  0.8 0.18 0  0.82 0.18 0  0.84 0.18 0  0.86 0.18 0  0.88 0.18 0  0.9 0.18 0  0.92 0.18 0  0.9399999999999999 0.18 0  0.96 0.18 0  0.98 0.18 0  1 0.18 0  0 0.2 0  0.02 0.2 0  0.04 0.2 0  0.06 0.2 0  0.08 0.2 0  0.1 0.2 0  0.12 0.2 0  0.14 0.2 0  0.16 0.2 0  0.18 0.2 0  0.2 0.2 0  0.22 0.2 0  0.24 0.2 0  0.26 0.2 0  0.28 0.2 0  0.3 0.2 0  0.32 0.2 0  0.34 0.2 0  0.36 0.2 0  0.38 0.2 0  0.4 0.2 0  0.42 0.2 0  0.44 0.2 0  0.46 0.2 0  0.48 0.2 0  0.5 0.2 0  0.52 0.2 0  0.54 0.2 0  0.5600000000000001 0.2 0  0.58 0.2 0  0.6 0.2 0  0.62 0.2 0  0.64 0.2 0  0.66 0.2 0  0.68 0.2 0  0.7 0.2 0  0.72 0.2 0  0.74 0.2 0  0.76 0.2 0  0.78 0.2 0  0.8 0.2 0  0.82 0.2 0  0.84 0.2 0  0.86 0.2 0  0.88 0.2 0  0.9 0.2 0  0.92 0.2 0  0.9399999999999999 0.2 0  0.96 0.2 0  0.98 0.2 0  1 0.2 0  0 0.22 0  0.02 0.22 0  0.04 0.22 0  0.06 0.22 0  0.08 0.22 0  0.1 0.22 0  0.12 0.22 0  0.14 0.22 0  0.16 0.22 0  0.18 0.22 0  0.2 0.22 0  0.22 0.22 0  0.24 0.22 0  0.26 0.22 0  0.28 0.22 0  0.3 0.22 0  0.32 0.22 0  0.34 0.22 0  0.36 0.22 0  0.38 0.22 0  0.4 0.22 0  0.42 0.22 0  0.44 0.22 0  0.46 0.22 0  0.48 0.22 0  0.5 0.22 0  0.52 0.22 0  0.54 0.22 0  0.5600000000000001 0.22 0  0.58 0.22 0  0.6 0.22 0  0.62 0.22 0  0.64 0.22 0  0.66 0.22 0  0.68 0.22 0  0.7 0.22 0  0.72 0.22 0  0.74 0.22 0  0.76 0.22 0  0.78 0.22 0  0.8 0.22 0  0.82 0.22 0  0.84 0.22 0  0.86 0.22 0  0.88 0.22 0  0.9 0.22 0  0.92 0.22 0  0.9399999999999999 0.22 0  0.96 0.22 0  0.98 0.22 0  1 0.22 0  0 0.24 0  0.02 0.24 0  0.04 0.24 0  0.06 0.24 0  0.08 0.24 0  0.1 0.24 0  0.12 0.24 0  0.14 0.24 0  0.16 0.24 0  0.18 0.24 0  0.2 0.24 0  0.22 0.24 0  0.24 0.24 0  0.26 0.24 0  0.28 0.24 0  0.3 0.24 0  0.32 0.24 0  0.34 0.24 0  0.36 0.24 0  0.38 0.24 0  0.4 0.24 0  0.42 0.24 0  0.44 0.24 0  0.46 0.24 0  0.48 0.24 0  0.5 0.24 0  0.52 0.24 0  0.54 0.24 0  0.5600000000000001 0.24 0  0.58 0.24 0  0.6 0.24 0  0.62 0.24 0  0.64 0.24 0  0.66 0.24 0  0.68 0.24 0  0.7 0.24 0  0.72 0.24 0  0.74 0.24 0  0.76 0.24 0  0.78 0.24 0  0.8 0.24 0  0.82 0.24 0  0.84 0.24 0  0.86 0.24 0  0.88 0.24 0  0.9 0.24 0  0.92 0.24 0  0.9399999999999999 0.24 0  0.96 0.24 0  0.98 0.24 0  1 0.24 0  0 0.26 0  0.02 0.26 0  0.04 0.26 0  0.06 0.26 0  0.08 0.26 0  0.1 0.26 0  0.12 0.26 0  0.14 0.26 0  0.16 0.26 0  0.18 0.26 0  0.2 0.26 0  0.22 0.26 0  0.24 0.26 0  0.26 0.26 0  0.28 0.26 0  0.3 0.26 0  0.32 0.26 0  0.34 0.26 0  0.36 0.26 0  0.38 0.26 0  0.4 0.26 0  0.42 0.26 0  0.44 0.26 0  0.46 0.26 0  0.48 0.26 0  0.5 0.26 0  0.52 0.26 0  0.54 0.26 0  0.5600000000000001 0.26 0  0.58 0.26 0  0.6 0.26 0  0.62 0.26 0  0.64 0.26 0  0.66 0.26 0  0.68 0.26 0  0.7 0.26 0  0.72 0.26 0  0.74 0.26 0  0.76 0.26 0  0.78 0.26 0  0.8 0.26 0  0.82 0.26 0  0.84 0.26 0  0.86 0.26 0  0.88 0.26 0  0.9 0.26 0  0.92 0.26 0  0.9399999999999999 0.26 0  0.96 0.26 0  0.98 0.26 0  1 0.26 0  0 0.28 0  0.02 0.28 0  0.04 0.28 0  0.06 0.28 0  0.08 0.28 0  0.1 0.28 0  0.12 0.28 0  0.14 0.28 0  0.16 0.28 0  0.18 0.28 0  0.2 0.28 0  0.22 0.28 0  0.24 0.28 0  0.26 0.28 0  0.28 0.28 0  0.3 0.28 0  0.32 0.28 0  0.34 0.28 0  0.36 0.28 0  0.38 0.28 0  0.4 0.28 0  0.42 0.28 0  0.44 0.28 0  0.46 0.28 0  0.48 0.28 0  0.5 0.28 0  0.52 0.28 0  0.54 0.28 0  0.5600000000000001 0.28 0  0.58 0.28 0  0.6 0.28 0  0.62 0.28 0  0.64 0.28 0  0.66 0.28 0  0.68 0.28 0  0.7 0.28 0  0.72 0.28 0  0.74 0.28 0  0.76 0.28 0  0.78 0.28 0  0.8 0.28 0  0.82 0.28 0  0.84 0.28 0  0.86 0.28
[...]
<PointData  Scalars="f_17"> 
<DataArray  type="Float64"  Name="f_17"  format="ascii">1.0000000000000000e+00  9.8937708542008806e-01  9.7874735106660493e-01  9.6810342366920421e-01  9.5743736463737783e-01  9.4674062970506634e-01  9.3600403357623341e-01  9.2521771517580798e-01  9.1437110225278739e-01  9.0345287479446212e-01  8.9245092687458127e-01  8.8135232658385376e-01  8.7014327367396982e-01  8.5880905450999268e-01  8.4733399387625230e-01  8.3570140311806818e-01  8.2389352402415961e-01  8.1189146775952503e-01  7.9967514804199624e-01  7.8722320761230102e-01  7.7451293687051537e-01  7.6152018333230820e-01  7.4821925028467529e-01  7.3458278267740240e-01  7.2058163785258222e-01  7.0618473816224425e-01  6.9135890181551785e-01  6.7606864737943762e-01  6.6027596615858342e-01  6.4394005509527730e-01  6.2701700071659405e-01  6.0945940179258962e-01  5.9121591444486543e-01  5.7223069797831294e-01  5.5244273196775806e-01  5.3178496396173680e-01  5.1018323070925442e-01  4.8755487099252359e-01  4.6380690969256300e-01  4.3883363128566483e-01  4.1251325929542276e-01  3.8470328274714582e-01  3.5523365219333475e-01  3.2389645302873521e-01  2.9042938115198974e-01  2.5448739502608764e-01  2.1558925781943486e-01  1.7300283968886970e-01  1.2545452279148825e-01  7.0241409895185181e-02  0.0000000000000000e+00  1.0000000000000000e+00  9.8938063682437549e-01  9.7875444851836357e-01  9.6811409432727424e-01  9.5745165628046691e-01  9.4675860837215098e-01  9.3602578340462461e-01  9.2524333886556986e-01  9.1440072180132448e-01  9.0348663241924176e-01  8.9248898611110150e-01  8.8139487356737622e-01  8.7019051862306496e-01  8.5886123343667675e-01  8.4739137055400315e-01  8.3576427134637354e-01  8.2396221023701588e-01  8.1196633403609419e-01  7.9975659559099965e-01  7.8731168081852954e-01  7.7460892801309611e-01  7.6162423811148761e-01  7.4833197432874354e-01  7.3470484924662427e-01  7.2071379701616967e-01  7.0632782780259340e-01  6.9151386091826983e-01  6.7623653220873059e-01  6.6045797010913265e-01  6.4413753327892487e-01  6.2723150071415767e-01  6.0969270253357299e-01  5.9147007594805956e-01  5.7250812582377564e-01  5.5274626208481747e-01  5.3211797596112576e-01  5.1054980217071333e-01  4.8795999193584388e-01  4.6425678794642183e-01  4.3933613959082296e-01  4.1307861188113254e-01  3.8534510061975358e-01  3.5597072456206280e-01  3.2475583619928916e-01  2.9145231039026409e-01  2.5574183957698987e-01  2.1720054089077845e-01  1.7524158713700805e-01  1.2903526136586249e-01  7.7494333767204479e-02  1.9998666693333080e-02  1.0000000000000000e+00  9.8939128639988294e-01  9.7877578905004137e-01  9.6814621917336963e-01  9.5749471107527950e-01  9.4681279128577733e-01  9.3609134622849421e-01  9.2532058876192302e-01  9.1449002358908860e-01  9.0358841135519097e-01  8.9260373117539882e-01  8.8152314129088238e-01  8.7033293751342056e-01  8.5901850907765653e-01  8.4756429147120538e-01  8.3595371575373634e-01  8.2416915380446987e-01  8.1219185885032519e-01  8.0000190052066200e-01  7.8757809354458619e-01  7.7489791904734440e-01  7.6193743720578488e-01  7.4867118977947500e-01  7.3507209073103352e-01  7.2111130276967272e-01  7.0675809717357274e-01  6.9197969363957879e-01  6.7674107613251666e-01  6.6100477970618865e-01  6.4473064196827778e-01  6.2787551115687912e-01  6.1039290053970519e-01  5.9223257582881961e-01  5.7334005822374590e-01  5.5365602011879100e-01  5.3311554280013307e-01  5.1164719467786302e-01  4.8917187336612888e-01  4.6560133321771302e-01  4.4083628885570791e-01  4.1476394101828495e-01  3.8725470967591780e-01  3.5815788069997534e-01  3.2729579487749827e-01  2.9445622077061379e-01  2.5938298777271318e-01  2.2176694618351114e-01  1.8124652717964643e-01  1.3745054819731153e-01  9.0182852300036559e-02  3.9989334186634161e-02  1.0000000000000000e+00  9.8940899270479155e-01  9.7881127948665714e-01  9.6819965330675029e-01  9.5756633244042932e-01  9.4690292940211840e-01  9.3620041909455831e-01  9.2544910601729569e-01  9.1463859039251527e-01  9.0375773301492712e-01  8.9279461858477571e-01  8.8173651724403734e-01  8.7056984399925297e-01  8.5928011567519902e-01  8.4785190499832963e-01  8.3626879135519194e-01  8.2451330770656317e-01  8.1256688306031710e-01  8.0040977981197792e-01  7.8802102514779293e-01  7.7537833556628599e-01  7.6245803340458573e-01  7.4923495404780016e-01  7.3568234224357920e-01  7.2177173562720243e-01  7.0747283316892851e-01  6.9275334576390546e-01  6.7757882556834537e-01  6.6191246990823893e-01  6.4571489460201414e-01  6.2894387028528165e-01  6.1155401372516727e-01  5.9349642406215664e-01  5.7471825129184428e-01  5.5516218094569492e-01  5.3476581468625684e-01  5.1346092126985077e-01  4.9117252607813833e-01  4.6781780067486212e-01  4.4330470831582292e-01  4.1753036174711644e-01  3.9037906798718258e-01  3.6172010069948157e-01  3.3140542593349981e-01  2.9926808285233059e-01  2.6512308779980454e-01  2.2877547446016153e-01  1.9004613729042463e-01  1.4883779913482567e-01  1.0527836040568693e-01  5.9964006479444588e-02  1.0000000000000000e+00  9.8943367782351599e-01  9.7886076057813332e-01  9.6827415442065290e-01  9.5766619350593085e-01  9.4702860929936605e-01  9.3635249937123011e-01  9.2562829541382541e-01  9.1484573027608818e-01  9.0399380380577454e-01  8.9306074726656326e-01  8.8203398606968375e-01  8.7090010052931943e-01  8.5964478431710467e-01  8.4825280025182559e-01  8.3670793301436641e-01  8.2499293832323140e-01  8.1308948804072323e-01  8.0097811060181390e-01  7.8863812606419625e-01  7.7604757496565557e-01  7.6318314003975674e-01  7.5002005967791729e-01  7.3653203182922633e-01  7.2269110679153137e-01  7.0846756705946423e-01  6.9382979204665851e-01  6.7874410507811189e-01  6.6317459954065483e-01  6.4708294047044690e-01  6.3042813713349921e-01  6.1316628131206186e-01  5.9525024505589208e-01  5.7662933063802635e-01  5.5724886448788202e-01  5.3704972622571490e-01  5.1596780414854082e-01  4.9393337075063898e-01  4.7087037836803519e-01  4.4669569032522849e-01  4.2131829598466325e-01  3.9463862657993598e-01  3.6654822750786303e-01  3.3693031917031668e-01  3.0566231720973747e-01  2.7262239482685829e-01  2.3770393583747845e-01  2.0084434065007498e-01  1.6207689872100162e-01  1.2161047089428909e-01  7.9914693969172695e-02  1.0000000000000000e+00  9.8946523078632442e-01  9.7892400872270824e-01  9.6836938431039554e-01  9.5779383910349936e-01  9.4718925583730817e-01  9.3654688812643372e-01  9.2585732949554711e-01  9.1511048153192565e-01  9.0429552095174592e-01  8.9340086536060792e-01  8.8241413747006481e-01  8.7132212750883786e-01  8.6011075354035815e-01  8.4876501936683824e-01  8.3726896966336561e-01  8.2560564194247776e-01  8.1375701489917640e-01  8.0170395262699179e-01  7.8942614412602186e-01  7.7690203744210740e-01  7.6410876768058222e-01  7.5102207802625420e-01  7.3761623277135535e-01  7.2386392120314413e-01  7.0973615103135879e-01  6.9520212984260099e-01  6.8022913285654385e-01  6.6478235503467242e-01  6.4882474537185686e-01  6.3231682101488673e-01  6.1521645875676523e-01  5.9747866155247897e-01  5.7905529817048340e-01  5.5989481524846008e-01  5.3994192341106717e-01  5.1913726368997737e-01  4.9741706893773174e-01  4.7471285017536019e-01  4.5095116496885301e-01  4.2605357284220829e-01  3.9993696647985527e-01  3.7251461184024903e-01  3.4369847324753544e-01  3.1340379043927036e-01  2.8155745047063885e-01  2.4811239147929465e-01  2.1307065764432404e-01  1.7651643306834422e-01  1.3865434492657516e-01  9.9833416646828155e-02  1.0000000000000000e+00  9.8950350923267127e-01  9.7900073793959930e-01  9.6848491123629543e-01  9.5794868877728023e-01  9.4738413597954796e-01  9.3678269486150167e-01  9.2613515429757709e-01  9.1543161949611851e-01  9.0466148050844497e-01  8.9381337956994589e-01  8.8287517706158425e-01  8.7183391586382264e-01  8.6067578385535892e-01  8.4938607428623347e-01  8.3794914372855678e-01  8.2634836727794836e-01  8.1456609064433683e-01  8.0258357873166619e-01  7.9038096026192717e-01  7.7793716794967949e-01  7.6522987367898720e-01  7.5223541807617633e-01  7.3892873381060575e-01  7.2528326189481218e-01  7.1127086020030761e-01  6.9686170336507725e-01  6.8202417325853648e-01  6.6672473921370723e-01  6.5092782737398935e-01  6.3459567879598533e-01  6.1768819650086904e-01  6.0016278263513767e-01  5.8197416854377193e-01  5.6307424328528699e-01  5.4341189058665518e-01  5.2293285149993818e-01  5.0157964176337333e-01  4.7929157175073139e-01  4.5600494706330147e-01  4.3165357554708239e-01  4.0616978073583021e-01  3.7948623371235990e-01  3.5153907546499213e-01  3.2227300783989132e-01  2.9164923802043102e-01  2.5965721365934946e-01  2.2633059908282543e-01  1.9176618024846248e-01  1.5614040793248773e-01  1.1971220728891938e-01  1.0000000000000000e+00  9.8954834067223563e-01  9.7909060200996834e-01  9.6862021288383127e-01  9.5813004065133789e-01  9.4761236367819957e-01  9.3705884351755653e-01  9.2646049658044693e-01  9.1580766513042977e-01  9.0508998743370972e-01  8.9429636689137970e-01  8.8341493997263343e-01  8.7243304275756139e-01  8.6133717588588543e-01  8.5011296769400868e-01  8.3874513530725736e-01  8.2721744343729531e-01  8.1551266061674965e-01  8.0361251258451250e-01  7.9149763251678640e-01  7.7914750778201702e-01  7.6654042288441293e-01  7.5365339825387534e-01  7.4046212454464855e-01  7.2694089212795154e-01  7.1306251551608713e-01  6.9879825255313965e-01  6.8411771837457191e-01  6.6898879441091597e-01  6.5337753314355518e-01  6.3724805999444900e-01  6.2056247476863025e-01  6.0328075665164482e-01  5.8536067916944334e-01  5.6675774515911725e-01  5.4742515729334329e-01  5.2731384796489145e-01  5.0637260470497258e-01  4.8454834567367255e-01  4.6178662667839798e-01  4.3803249978793807e-01  4.1323189701696889e-01  3.8733378185126477e-01  3.6029339076115041e-01  3.3207695312018515e-01  3.0266827112668848e-01  2.7207733587679167e-01  2.4035053712429186e-01  2.0758072983180881e-01  1.7391338924578398e-01  1.3954311464423649e-01  1.0000000000000000e+00  9.8959952372477089e-01  9.7919319684692196e-01  9.6877467983293719e-01  9.5833707604402985e-01  9.4787290571658978e-01  9.3737407964812647e-01  9.2683187245020027e-01  9.1623689522779772e-01  9.0557906754303930e-01  8.9484758851866975e-01  8.8403090693312980e-01  8.7311669015442916e-01  8.6209179175486295e-01  8.5094221764331412e-01  8.3965309054699011e-01  8.2820861267056423e-01  8.1659202635875217e-01  8.0478557258952776e-01  7.9277044713123634e-01  7.8052675421025342e-01  7.6803345756005925e-01  7.5526832876266403e-01  7.4220789285629518e-01  7.2882737127925878e-01  7.1510062236328475e-01  7.0100007980097956e-01  6.8649668982051715e-01  6.7155984824834503e-01  6.5615733928739639e-01  6.4025527877000288e-01  6.2381806598427103e-01  6.0680835009544121e-01  5.8918701993867351e-01  5.7091322989700000e-01  5.5194448018313680e-01  5.3223677777213985e-01  5.1174491533262345e-01  4.9042292079606592e-01  4.6822475072764985e-01  4.4510532705576711e-01  4.2102204822096007e-01  3.9593693821061871e-01  3.6981961880543052e-01  3.4265127685966318e-01  3.1442970350892957e-01  2.8517523364151870e-01  2.5493692610209046e-01  2.2379756009591453e-01  1.9187514199500191e-01  1.5931820661424598e-01  1.0000000000000000e+00  9.8965682944845934e-01  9.7930806312539787e-01  9.6894761949064911e-01  9.5856886474603931e-01  9.4816458840839657e-01  9.3772697864045607e-01  9.2724759722634520e-01  9.1671735407716304e-01  9.0612648115199568e-01  8.9546450567979941e-01  8.8472022256788896e-01  8.7388166588341953e-01  8.6293607929571525e-01  8.5186988537016861e-01  8.4066865360947907e-01  8.2931706714629883e-01  8.1779888800414835e-01  8.0609692086269724e-01  7.9419297529151844e-01  7.8206782645661110e-01  7.6970117436093533e-01  7.5707160176004984e-01  7.4415653100537005e-01  7.3093218022220141e-01  7.1737351944376804e-01  7.0345422761814802e-01  6.8914665181298107e-01  6.7442177050518759e-01  6.5924916361772878e-01  6.4359699303207274e-01  6.2743199877187150e-01  6.1071951806655655e-01  5.9342353725786345e-01  5.7550679026070517e-01  5.5693092234960162e-01  5.3765674478582437e-01  5.1764461461584199e-01  4.9685498514978182e-01  4.7524918612109895e-01  4.5279050746416277e-01  4.2944567445457243e-01  4.0518680892047509e-01  3.7999396039291028e-01  3.5385824384690934e-01  3.2678550985215421e-01  2.9880026696641909e-01  2.6994925690742078e-01  2.4030368660115614e-01  2.0995880264322728e-01  1.7902957342582418e-01  1.0000000000000000e+00  9.8972000278359851e-01  9.7943468917072518e-01  9.6913826044447504e-01  9.5882437088634642e-01  9.4848610505217279e-01  9.3811595486106369e-01  9.2770579640745687e-01  9.1724686640694897e-01  9.0672973818833269e-01  8.9614429714711741e-01  8.8547971557981842e-01  8.7472442682378337e-01  8.6386609863480390e-01  8.5289160574502410e-01  8.4178700155764397e-01  8.3053748895399104e-01  8.1912739021431524e-01  8.0754011608844900e-01  7.9575813409912266e-01  7.8376293622317617e-01  7.7153500617928272e-01  7.5905378666195555e-01  7.4629764700967960e-01  7.3324385199217346e-01  7.1986853266427331e-01  7.0614666058338427e-01  6.9205202715266578e-01  6.7755723047126459e-01  6.6263367289627761e-01  6.4725157361443442e-01  6.3138000196931066e-01  6.1498693919895464e-01  5.9803937873931745e-01  5.8050347849127715e-01  5.6234478259076903e-01  5.4352853539392509e-01  5.2402011662792269e-01  5.0378563377117080e-01  4.8279271505867005e-01  4.6101155255630288e-01  4.3841624657752098e-01  4.1498649519639397e-01  3.9070964764311095e-01  3.6558308667994982e-01  3.3961680985433484e-01  3.1283593427136147e-01  2.8528266262818419e-01  2.5701706536227809e-01  2.2811595750743194e-01  1.9866933079506122e-01  1.0000000000000000e+00  9.8978876411044114e-01  9.7957251408591905e-01  9.6934575718871718e-01  9.5910245931021465e-01  9.4883602403881295e-01  9.3853927159655437e-01  9.2820441757664218e-01  9.1782305141645981e-01  9.0738611454453078e-01  8.9688387814537240e-01  8.8630592049361245e-01  8.7564110381850124e-01  8.6487755067271421e-01  8.5400261979596903e-01  8.4300288148565328e-01  8.3186409251478355e-01  8.2057117067418450e-01  8.0910816906317606e-01  7.9745825031446038e-01  7.8560366101846879e-01  7.7352570671537690e-01  7.6120472795630845e-01  7.4862007810783304e-01  7.3575010379725847e-01  7.2257212918553493e-01  7.0906244562897480e-01  6.9519630877534122e-01  6.8094794576544726e-01  6.6629057601770436e-01  6.5119645010837557e-01  6.3563691258243693e-01  6.1958249620465111e-01  6.0300305725674952e-01  5.8586796406553432e-01  5.6814635403908931e-01  5.4980747805331120e-01  5.3082115488546544e-01  5.1115836209402610e-01  4.9079199241956989e-01  4.6969780487574608e-01  4.4785559468166536e-01  4.2525059228372314e-01  4.0187507389124133e-01  3.7773011858354566e-01  3.5282737601575903e-01  3.2719061582060127e-01  3.0085672964574411e-01  2.7387578480044128e-01  2.4630974296074964e-01  2.1822962308086932e-01  1.0000000000000000e+00  9.8986281090956707e-01  9.7972093108814751e-01  9.6956919517111773e-01  9.5940190239138745e-01  9.4921279750809107e-01  9.3899505165842179e-01  9.2874124308560801e-01  9.1844333770004893e-01  9.0809266943643030e-01  8.9767992037754207e-01  8.8719510062589124e-01  8.7662752791761922e-01  8.6596580699038150e-01  8.5519780873872941e-01  8.4431064921835652e-01  8.3329066859591538e-01  8.2212341018595114e-01  8.1079359977337229e-01  7.9928512549194886e-01  7.8758101862065300e-01  7.7566343577533703e-01  7.6351364311975545e-01  7.5111200340540951e-01  7.3843796688441143e-01  7.2547006743631526e-01  7.1218592562452043e-01  6.9856226086986739e-01  6.8457491552175087e-01  6.7019889434787783e-01  6.5540842388339660e-01  6.4017703721081964e-01  6.2447769111348939e-01  6.0828292417634411e-01  5.9156506629240579e-01  5.7429651211714183e-01  5.5645007315382189e-01  5.3799942506447240e-01  5.1891966796838451e-01  4.9918801706314142e-01  4.7878463757439088e-01  4.5769362994921514e-01  4.3590415595550530e-01  4.1341167129312262e-01  3.9021919339766492e-01  3.6633848449442158e-01  3.4179097468247827e-01  3.1660820099374987e-01  2.9083151908096955e-01  2.6451088461675015e-01  2.3770262642713458e-01  1.0000000000000000e+00  9.8994181950907190e-01  9.7987929102029947e-01  9.6980759610447953e-01  9.5972138719973110e-01  9.4961477045039799e-01  9.3948128852086388e-01  9.2931390335654906e-01  9.1910497886972808e-01  9.0884626353528519e-01  8.9852887289140060e-01  8.8814327195297893e-01  8.7767925756193499e-01  8.6712594071905558e-01  8.5647172896802126e-01  8.4570430893463322e-01  8.3481062916480242e-01  8.2377688345550104e-01  8.1258849493601437e-01  8.0123010123553051e-01  7.8968554117108947e-01  7.7793784351185002e-01  7.6596921852716848e-01  7.5376105321414566e-01  7.4129391133346723e-01  7.2854753967072472e-01  7.1550088229586561e-01  7.0213210502975643e-01  6.8841863285929394e-01  6.7433720368706340e-01  6.5986394257316527e-01  6.4497446153648275e-01  6.2964399103167179e-01  6.1384755038975891e-01  5.9756016575538085e-01  5.8075714527049704e-01  5.6341442225812899e-01  5.4550897764273099e-01  5.2701935232621733e-01  5.0792625801653213e-01  4.8821329011485770e-01  4.6786773750087368e-01  4.4688147009706825e-01  4.2525186486760930e-01  4.0298270425408061e-01  3.8008494979035945e-01  3.5657726291682101e-01  3.3248612439945630e-01  3.0784540696940971e-01  2.8269529738461641e-01  2.5708055189215512e-01  1.0000000000000000e+00  9.9002544690139671e-01  9.8004690600198918e-01  9.7005992348729375e-01  9.6005952294626151e-01  9.5004019015171348e-01  9.3999585786365736e-01  9.2991989064524216e-01  9.1980506968755738e-01  9.0964357764823178e-01  8.9942698352020700e-01  8.8914622756169948e-01  8.7879160633678843e-01  8.6835275793910927e-01  8.5781864749976589e-01  8.4717755311604193e-01  8.3641705238126063e-01  8.2552400975011264e-01  8.1448456504017674e-01  8.0328412345189415e-01  7.9190734758931702e-01  7.8033815208640644e-01  7.6855970159329112e-01  7.5655441305925519e-01  7.4430396347076222e-01  7.3178930447081392e-01  7.1899068560848034e-01  7.0588768835281956e-01  6.9245927346163749e-01  6.7868384482886135e-01  6.6453933354708461e-01  6.5000330660896943e-01  6.3505310541478033e-01  6.1966602001450133e-01  6.0381950572053644e-01  5.8749144926157493e-01  5.7066049182229694e-01  5.5330641584813722e-01  5.3541060099578708e-01  5.1695655155686915e-01  4.9793049243667908e-01  4.7832202264365647e-01  4.5812480365631914e-01  4.3733724480054809e-01  4.1596312956789971e-01  3.9401210776393703e-01  3.7149996263953461e-01  3.4844855604700886e-01  3.2488536582183403e-01  3.0084256452040675e-01  2.7635564856411376e-01  1.0000000000000000e+00  9.9011333261244394e-01  9.8022305318454972e-01  9.7032508827862796e-01  9.6041484863004534e-01  9.5048721588388896e-01  9.4053652939780819e-01  9.3055657311632656e-01  9.2054056252907868e-01  9.1048113173509482e-01  9.0037032064769651e-01  8.9019956239040099e-01  8.7995967095399230e-01  8.6964082920940944e-01  8.5923257740126491e-01  8.4872380228378785e-01  8.3810272710614475e-01  8.2735690270916606e-01  8.1647320006239221e-01  8.0543780465148951e-01  7.9423621322418270e-01  7.8285323352115765e-01  7.7127298776052244e-01  7.5947892081455393e-01  7.4745381422001322e-01  7.3517980740295474e-01  7.2263842778016529e-01  7.0981063172585890e-01  6.9667685876598207e-01  6.8321710178225281e-01  6.6941099646703317e-01  6.5523793375272521e-01  6.4067719941633194e-01  6.2570814548185116e-01  6.1031039833243161e-01  5.9446410848410836e-01  5.7815024659647141e-01  5.6135094927518281e-01  5.4404991626337840e-01  5.2623285737224945e-01  5.0788798258917278e-01  4.8900652189801919e-01  4.6958325230901915e-01  4.4961699867681809e-01  4.2911106300525809e-01  4.0807352596893998e-01  3.8651735731236364e-01  3.6446027253475544e-01  3.4192428587581375e-01  3.1893493667152673e-01  2.9552020666133955e-01  1.0000000000000000e+00  9.9020510060622891e-01  9.8040697857602699e-01  9.7060195467516064e-01  9.6078584081562024e-01  9.5095392874827489e-01  9.4110097885976196e-01  9.3122120909229011e-01  9.2130828401263998e-01  9.1135530406679410e-01  9.0135479506961724e-01  8.9129869799541239e-01  8.8117835915550535e-01  8.7098452087401423e