<?xml version="1.0"?>
<VTKFile type="UnstructuredGrid"  version="0.1"  >
<UnstructuredGrid>
<Piece  NumberOfPoints="2601" NumberOfCells="5000">
<Points>
<DataArray  type="Float64"  NumberOfComponents="3"  format="ascii">0 0 0  0.02 0 0  0.04 0 0  0.06 0 0  0.08 0 0  0.1 0 0  0.12 0 0  0.14 0 0  0.16 0 0  0.18 0 0  0.2 0 0  0.22 0 0  0.24 0 0  0.26 0 0  0.28 0 0  0.3 0 0  0.32 0 0  0.34 0 0  0.36 0 0  0.38 0 0  0.4 0 0  0.42 0 0  0.44 0 0  0.46 0 0  0.48 0 0  0.5 0 0  0.52 0 0  0.54 0 0  0.5600000000000001 0 0  0.58 0 0  0.6 0 0  0.62 0 0  0.64 0 0  0.66 0 0  0.68 0 0  0.7 0 0  0.72 0 0  0.74 0 0  0.76 0 0  0.78 0 0  0.8 0 0  0.82 0 0  0.84 0 0  0.86 0 0  0.88 0 0  0.9 0 0  0.92 0 0  0.9399999999999999 0 0  0.96 0 0  0.98 0 0  1 0 0  0 0.02 0  0.02 0.02 0  0.04 0.02 0  0.06 0.02 0  0.08 0.02 0  0.1 0.02 0  0.12 0.02 0  0.14 0.02 0  0.16 0.02 0  0.18 0.02 0  0.2 0.02 0  0.22 0.02 0  0.24 0.02 0  0.26 0.02 0  0.28 0.02 0  0.3 0.02 0  0.32 0.02 0  0.34 0.02 0  0.36 0.02 0  0.38 0.02 0  0.4 0.02 0  0.42 0.02 0  0.44 0.02 0  0.46 0.02 0  0.48 0.02 0  0.5 0.02 0  0.52 0.02 0  0.54 0.02 0  0.5600000000000001 0.02 0  0.58 0.02 0  0.6 0.02 0  0.62 0.02 0  0.64 0.02 0  0.66 0.02 0  0.68 0.02 0  0.7 0.02 0  0.72 0.02 0  0.74 0.02 0  0.76 0.02 0  0.78 0.02 0  0.8 0.02 0  0.82 0.02 0  0.84 0.02 0  0.86 0.02 0  0.88 0.02 0  0.9 0.02 0  0.92 0.02 0  0.9399999999999999 0.02 0  0.96 0.02 0  0.98 0.02 0  1 0.02 0  0 0.04 0  0.02 0.04 0  0.04 0.04 0  0.06 0.04 0  0.08 0.04 0  0.1 0.04 0  0.12 0.04 0  0.14 0.04 0  0.16 0.04 0  0.18 0.04 0  0.2 0.04 0  0.22 0.04 0  0.24 0.04 0  0.26 0.04 0  0.28 0.04 0  0.3 0.04 0  0.32 0.04 0  0.34 0.04 0  0.36 0.04 0  0.38 0.04 0  0.4 0.04 0  0.42 0.04 0  0.44 0.04 0  0.46 0.04 0  0.48 0.04 0  0.5 0.04 0  0.52 0.04 0  0.54 0.04 0  0.5600000000000001 0.04 0  0.58 0.04 0  0.6 0.04 0  0.62 0.04 0  0.64 0.04 0  0.66 0.04 0  0.68 0.04 0  0.7 0.04 0  0.72 0.04 0  0.74 0.04 0  0.76 0.04 0  0.78 0.04 0  0.8 0.04 0  0.82 0.04 0  0.84 0.04 0  0.86 0.04 0  0.88 0.04 0  0.9 0.04 0  0.92 0.04 0  0.9399999999999999 0.04 0  0.96 0.04 0  0.98 0.04 0  1 0.04 0  0 0.06 0  0.02 0.06 0  0.04 0.06 0  0.06 0.06 0  0.08 0.06 0  0.1 0.06 0  0.12 0.06 0  0.14 0.06 0  0.16 0.06 0  0.18 0.06 0  0.2 0.06 0  0.22 0.06 0  0.24 0.06 0  0.26 0.06 0  0.28 0.06 0  0.3 0.06 0  0.32 0.06 0  0.34 0.06 0  0.36 0.06 0  0.38 0.06 0  0.4 0.06 0  0.42 0.06 0  0.44 0.06 0  0.46 0.06 0  0.48 0.06 0  0.5 0.06 0  0.52 0.06 0  0.54 0.06 0  0.5600000000000001 0.06 0  0.58 0.06 0  0.6 0.06 0  0.62 0.06 0  0.64 0.06 0  0.66 0.06 0  0.68 0.06 0  0.7 0.06 0  0.72 0.06 0  0.74 0.06 0  0.76 0.06 0  0.78 0.06 0  0.8 0.06 0  0.82 0.06 0  0.84 0.06 0  0.86 0.06 0  0.88 0.06 0  0.9 0.06 0  0.92 0.06 0  0.9399999999999999 0.06 0  0.96 0.06 0  0.98 0.06 0  1 0.06 0  0 0.08 0  0.02 0.08 0  0.04 0.08 0  0.06 0.08 0  0.08 0.08 0  0.1 0.08 0  0.12 0.08 0  0.14 0.08 0  0.16 0.08 0  0.18 0.08 0  0.2 0.08 0  0.22 0.08 0  0.24 0.08 0  0.26 0.08 0  0.28 0.08 0  0.3 0.08 0  0.32 0.08 0  0.34 0.08 0  0.36 0.08 0  0.38 0.08 0  0.4 0.08 0  0.42 0.08 0  0.44 0.08 0  0.46 0.08 0  0.48 0.08 0  0.5 0.08 0  0.52 0.08 0  0.54 0.08 0  0.5600000000000001 0.08 0  0.58 0.08 0  0.6 0.08 0  0.62 0.08 0  0.64 0.08 0  0.66 0.08 0  0.68 0.08 0  0.7 0.08 0  0.72 0.08 0  0.74 0.08 0  0.76 0.08 0  0.78 0.08 0  0.8 0.08 0  0.82 0.08 0  0.84 0.08 0  0.86 0.08 0  0.88 0.08 0  0.9 0.08 0  0.92 0.08 0  0.9399999999999999 0.08 0  0.96 0.08 0  0.98 0.08 0  1 0.08 0  0 0.1 0  0.02 0.1 0  0.04 0.1 0  0.06 0.1 0  0.08 0.1 0  0.1 0.1 0  0.12 0.1 0  0.14 0.1 0  0.16 0.1 0  0.18 0.1 0  0.2 0.1 0  0.22 0.1 0  0.24 0.1 0  0.26 0.1 0  0.28 0.1 0  0.3 0.1 0  0.32 0.1 0  0.34 0.1 0  0.36 0.1 0  0.38 0.1 0  0.4 0.1 0  0.42 0.1 0  0.44 0.1 0  0.46 0.1 0  0.48 0.1 0  0.5 0.1 0  0.52 0.1 0  0.54 0.1 0  0.5600000000000001 0.1 0  0.58 0.1 0  0.6 0.1 0  0.62 0.1 0  0.64 0.1 0  0.66 0.1 0  0.68 0.1 0  0.7 0.1 0  0.72 0.1 0  0.74 0.1 0  0.76 0.1 0  0.78 0.1 0  0.8 0.1 0  0.82 0.1 0  0.84 0.1 0  0.86 0.1 0  0.88 0.1 0  0.9 0.1 0  0.92 0.1 0  0.9399999999999999 0.1 0  0.96 0.1 0  0.98 0.1 0  1 0.1 0  0 0.12 0  0.02 0.12 0  0.04 0.12 0  0.06 0.12 0  0.08 0.12 0  0.1 0.12 0  0.12 0.12 0  0.14 0.12 0  0.16 0.12 0  0.18 0.12 0  0.2 0.12 0  0.22 0.12 0  0.24 0.12 0  0.26 0.12 0  0.28 0.12 0  0.3 0.12 0  0.32 0.12 0  0.34 0.12 0  0.36 0.12 0  0.38 0.12 0  0.4 0.12 0  0.42 0.12 0  0.44 0.12 0  0.46 0.12 0  0.48 0.12 0  0.5 0.12 0  0.52 0.12 0  0.54 0.12 0  0.5600000000000001 0.12 0  0.58 0.12 0  0.6 0.12 0  0.62 0.12 0  0.64 0.12 0  0.66 0.12 0  0.68 0.12 0  0.7 0.12 0  0.72 0.12 0  0.74 0.12 0  0.76 0.12 0  0.78 0.12 0  0.8 0.12 0  0.82 0.12 0  0.84 0.12 0  0.86 0.12 0  0.88 0.12 0  0.9 0.12 0  0.92 0.12 0  0.9399999999999999 0.12 0  0.96 0.12 0  0.98 0.12 0  1 0.12 0  0 0.14 0  0.02 0.14 0  0.04 0.14 0  0.06 0.14 0  0.08 0.14 0  0.1 0.14 0  0.12 0.14 0  0.14 0.14 0  0.16 0.14 0  0.18 0.14 0  0.2 0.14 0  0.22 0.14 0  0.24 0.14 0  0.26 0.14 0  0.28 0.14 0  0.3 0.14 0  0.32 0.14 0  0.34 0.14 0  0.36 0.14 0  0.38 0.14 0  0.4 0.14 0  0.42 0.14 0  0.44 0.14 0  0.46 0.14 0  0.48 0.14 0  0.5 0.14 0  0.52 0.14 0  0.54 0.14 0  0.5600000000000001 0.14 0  0.58 0.14 0  0.6 0.14 0  0.62 0.14 0  0.64 0.14 0  0.66 0.14 0  0.68 0.14 0  0.7 0.14 0  0.72 0.14 0  0.74 0.14 0  0.76 0.14 0  0.78 0.14 0  0.8 0.14 0  0.82 0.14 0  0.84 0.14 0  0.86 0.14 0  0.88 0.14 0  0.9 0.14 0  0.92 0.14 0  0.9399999999999999 0.14 0  0.96 0.14 0  0.98 0.14 0  1 0.14 0  0 0.16 0  0.02 0.16 0  0.04 0.16 0  0.06 0.16 0  0.08 0.16 0  0.1 0.16 0  0.12 0.16 0  0.14 0.16 0  0.16 0.16 0  0.18 0.16 0  0.2 0.16 0  0.22 0.16 0  0.24 0.16 0  0.26 0.16 0  0.28 0.16 0  0.3 0.16 0  0.32 0.16 0  0.34 0.16 0  0.36 0.16 0  0.38 0.16 0  0.4 0.16 0  0.42 0.16 0  0.44 0.16 0  0.46 0.16 0  0.48 0.16 0  0.5 0.16 0  0.52 0.16 0  0.54 0.16 0  0.5600000000000001 0.16 0  0.58 0.16 0  0.6 0.16 0  0.62 0.16 0  0.64 0.16 0  0.66 0.16 0  0.68 0.16 0  0.7 0.16 0  0.72 0.16 0  0.74 0.16 0  0.76 0.16 0  0.78 0.16 0  0.8 0.16 0  0.82 0.16 0  0.84 0.16 0  0.86 0.16 0  0.88 0.16 0  0.9 0.16 0  0.92 0.16 0  0.9399999999999999 0.16 0  0.96 0.16 0  0.98 0.16 0  1 0.16 0  0 0.18 0  0.02 0.18 0  0.04 0.18 0  0.06 0.18 0  0.08 0.18 0  0.1 0.18 0  0.12 0.18 0  0.14 0.18 0  0.16 0.18 0  0.18 0.18 0  0.2 0.18 0  0.22 0.18 0  0.24 0.18 0  0.26 0.18 0  0.28 0.18 0  0.3 0.18 0  0.32 0.18 0  0.34 0.18 0  0.36 0.18 0  0.38 0.18 0  0.4 0.18 0  0.42 0.18 0  0.44 0.18 0  0.46 0.18 0  0.48 0.18 0  0.5 0.18 0  0.52 0.18 0  0.54 0.18 0  0.5600000000000001 0.18 0  0.58 0.18 0  0.6 0.18 0  0.62 0.18 0  0.64 0.18 0  0.66 0.18 0  0.68 0.18 0  0.7 0.18 0  0.72 0.18 0  0.74 0.18 0  0.76 0.18 0  0.78 0.18 0  0.8 0.18 0  0.82 0.18 0  0.84 0.18 0  0.86 0.18 0  0.88 0.18 0  0.9 0.18 0  0.92 0.18 0  0.9399999999999999 0.18 0  0.96 0.18 0  0.98 0.18 0  1 0.18 0  0 0.2 0  0.02 0.2 0  0.04 0.2 0  0.06 0.2 0  0.08 0.2 0  0.1 0.2 0  0.12 0.2 0  0.14 0.2 0  0.16 0.2 0  0.18 0.2 0  0.2 0.2 0  0.22 0.2 0  0.24 0.2 0  0.26 0.2 0  0.28 0.2 0  0.3 0.2 0  0.32 0.2 0  0.34 0.2 0  0.36 0.2 0  0.38 0.2 0  0.4 0.2 0  0.42 0.2 0  0.44 0.2 0  0.46 0.2 0  0.48 0.2 0  0.5 0.2 0  0.52 0.2 0  0.54 0.2 0  0.5600000000000001 0.2 0  0.58 0.2 0  0.6 0.2 0  0.62 0.2 0  0.64 0.2 0  0.66 0.2 0  0.68 0.2 0  0.7 0.2 0  0.72 0.2 0  0.74 0.2 0  0.76 0.2 0  0.78 0.2 0  0.8 0.2 0  0.82 0.2 0  0.84 0.2 0  0.86 0.2 0  0.88 0.2 0  0.9 0.2 0  0.92 0.2 0  0.9399999999999999 0.2 0  0.96 0.2 0  0.98 0.2 0  1 0.2 0  0 0.22 0  0.02 0.22 0  0.04 0.22 0  0.06 0.22 0  0.08 0.22 0  0.1 0.22 0  0.12 0.22 0  0.14 0.22 0  0.16 0.22 0  0.18 0.22 0  0.2 0.22 0  0.22 0.22 0  0.24 0.22 0  0.26 0.22 0  0.28 0.22 0  0.3 0.22 0  0.32 0.22 0  0.34 0.22 0  0.36 0.22 0  0.38 0.22 0  0.4 0.22 0  0.42 0.22 0  0.44 0.22 0  0.46 0.22 0  0.48 0.22 0  0.5 0.22 0  0.52 0.22 0  0.54 0.22 0  0.5600000000000001 0.22 0  0.58 0.22 0  0.6 0.22 0  0.62 0.22 0  0.64 0.22 0  0.66 0.22 0  0.68 0.22 0  0.7 0.22 0  0.72 0.22 0  0.74 0.22 0  0.76 0.22 0  0.78 0.22 0  0.8 0.22 0  0.82 0.22 0  0.84 0.22 0  0.86 0.22 0  0.88 0.22 0  0.9 0.22 0  0.92 0.22 0  0.9399999999999999 0.22 0  0.96 0.22 0  0.98 0.22 0  1 0.22 0  0 0.24 0  0.02 0.24 0  0.04 0.24 0  0.06 0.24 0  0.08 0.24 0  0.1 0.24 0  0.12 0.24 0  0.14 0.24 0  0.16 0.24 0  0.18 0.24 0  0.2 0.24 0  0.22 0.24 0  0.24 0.24 0  0.26 0.24 0  0.28 0.24 0  0.3 0.24 0  0.32 0.24 0  0.34 0.24 0  0.36 0.24 0  0.38 0.24 0  0.4 0.24 0  0.42 0.24 0  0.44 0.24 0  0.46 0.24 0  0.48 0.24 0  0.5 0.24 0  0.52 0.24 0  0.54 0.24 0  0.5600000000000001 0.24 0  0.58 0.24 0  0.6 0.24 0  0.62 0.24 0  0.64 0.24 0  0.66 0.24 0  0.68 0.24 0  0.7 0.24 0  0.72 0.24 0  0.74 0.24 0  0.76 0.24 0  0.78 0.24 0  0.8 0.24 0  0.82 0.24 0  0.84 0.24 0  0.86 0.24 0  0.88 0.24 0  0.9 0.24 0  0.92 0.24 0  0.9399999999999999 0.24 0  0.96 0.24 0  0.98 0.24 0  1 0.24 0  0 0.26 0  0.02 0.26 0  0.04 0.26 0  0.06 0.26 0  0.08 0.26 0  0.1 0.26 0  0.12 0.26 0  0.14 0.26 0  0.16 0.26 0  0.18 0.26 0  0.2 0.26 0  0.22 0.26 0  0.24 0.26 0  0.26 0.26 0  0.28 0.26 0  0.3 0.26 0  0.32 0.26 0  0.34 0.26 0  0.36 0.26 0  0.38 0.26 0  0.4 0.26 0  0.42 0.26 0  0.44 0.26 0  0.46 0.26 0  0.48 0.26 0  0.5 0.26 0  0.52 0.26 0  0.54 0.26 0  0.5600000000000001 0.26 0  0.58 0.26 0  0.6 0.26 0  0.62 0.26 0  0.64 0.26 0  0.66 0.26 0  0.68 0.26 0  0.7 0.26 0  0.72 0.26 0  0.74 0.26 0  0.76 0.26 0  0.78 0.26 0  0.8 0.26 0  0.82 0.26 0  0.84 0.26 0  0.86 0.26 0  0.88 0.26 0  0.9 0.26 0  0.92 0.26 0  0.9399999999999999 0.26 0  0.96 0.26 0  0.98 0.26 0  1 0.26 0  0 0.28 0  0.02 0.28 0  0.04 0.28 0  0.06 0.28 0  0.08 0.28 0  0.1 0.28 0  0.12 0.28 0  0.14 0.28 0  0.16 0.28 0  0.18 0.28 0  0.2 0.28 0  0.22 0.28 0  0.24 0.28 0  0.26 0.28 0  0.28 0.28 0  0.3 0.28 0  0.32 0.28 0  0.34 0.28 0  0.36 0.28 0  0.38 0.28 0  0.4 0.28 0  0.42 0.28 0  0.44 0.28 0  0.46 0.28 0  0.48 0.28 0  0.5 0.28 0  0.52 0.28 0  0.54 0.28 0  0.5600000000000001 0.28 0  0.58 0.28 0  0.6 0.28 0  0.62 0.28 0  0.64 0.28 0  0.66 0.28 0  0.68 0.28 0  0.7 0.28 0  0.72 0.28 0  0.74 0.28 0  0.76 0.28 0  0.78 0.28 0  0.8 0.28 0  0.82 0.28 0  0.84 0.28 0  0.86 0.28
[...]
<PointData  Scalars="f_17"> 
<DataArray  type="Float64"  Name="f_17"  format="ascii">1.0000000000000000e+00  9.8398015231386582e-01  9.6796948628914492e-01  9.5197553033305127e-01  9.3600576167046523e-01  9.2006728940095484e-01  9.0416669085010026e-01  8.8830988878950301e-01  8.7250204255104780e-01  8.5674744571755623e-01  8.4104942800829297e-01  8.2541026033178033e-01  8.0983106236212665e-01  7.9431171208102103e-01  7.7885075670835935e-01  7.6344532438096468e-01  7.4809103585104308e-01  7.3278191536933657e-01  7.1751029979160175e-01  7.0226674479702578e-01  6.8703992692685756e-01  6.7181653993181867e-01  6.5658118364571616e-01  6.4131624326417469e-01  6.2600175648044121e-01  6.1061526538645394e-01  5.9513164934843799e-01  5.7952293415949929e-01  5.6375807158378599e-01  5.4780268183449299e-01  5.3161874942358134e-01  5.1516425996988624e-01  4.9839276163699991e-01  4.8125282941514980e-01  4.6368740272812270e-01  4.4563295568342526e-01  4.2701844283253509e-01  4.0776393848854348e-01  3.8777884919371930e-01  3.6695951749987854e-01  3.4518593354807564e-01  3.2231709545078924e-01  2.9818424099361013e-01  2.7258055831261868e-01  2.4524470052869990e-01  2.1583247829871063e-01  1.8386344385226128e-01  1.4860623643261556e-01  1.0878803152632070e-01  6.1706794367119108e-02  0.0000000000000000e+00  1.0000000000000000e+00  9.8398458606331252e-01  9.6797777805246255e-01  9.5198755807828572e-01  9.3602152553544593e-01  9.2008683629589350e-01  9.0419009567010877e-01  8.8833724936553904e-01  8.7253347842910833e-01  8.5678309823987775e-01  8.4108946097417392e-01  8.2545486100958365e-01  8.0988044277985738e-01  7.9436611058127438e-01  7.7891043978052799e-01  7.6351058880001965e-01  7.4816221116529458e-01  7.3285936679255237e-01  7.1759443156940006e-01  7.0235800413490312e-01  6.8713880858883003e-01  6.7192359164598836e-01  6.5669701248806445e-01  6.4144152323719972e-01  6.2613723756247519e-01  6.1076178440571993e-01  5.9529014314027207e-01  5.7969445560599497e-01  5.6394380932742139e-01  5.4800398472333334e-01  5.3183715711887769e-01  5.1540154167866026e-01  4.9865096570273187e-01  4.8153434763718617e-01  4.6399505499465371e-01  4.4597010314640467e-01  4.2738914203622791e-01  4.0817315568010537e-01  3.8823276553068320e-01  3.6746597599174985e-01  3.4575511547162724e-01  3.2296258547892331e-01  2.9892478846383408e-01  2.7344317596712087e-01  2.4627057623020429e-01  2.1708952991047731e-01  1.8547693910009097e-01  1.5084674151013072e-01  1.1237000939351456e-01  6.8960371862361328e-02  1.9998666693333080e-02  1.0000000000000000e+00  9.8399589510528773e-01  9.6800024869465673e-01  9.5202116865332220e-01  9.3606636407390276e-01  9.2014307394580142e-01  9.0425797316865242e-01  8.8841707175184592e-01  8.7262561386740922e-01  8.5688797895785496e-01  8.4120758545848440e-01  8.2558679710959171e-01  8.1002683159746491e-01  7.9452767113383194e-01  7.7908797448473377e-01  7.6370498986672886e-01  7.4837446803150298e-01  7.3309057475410055e-01  7.1784580182043622e-01  7.0263087547128733e-01  6.8743466109611839e-01  6.7224406277275772e-01  6.5704391600779055e-01  6.4181687173427293e-01  6.2654326925064496e-01  6.1120099531480243e-01  5.9576532600982557e-01  5.8020874723218729e-01  5.6450074866403754e-01  5.4860758480252736e-01  5.3249199492568278e-01  5.1611287162836583e-01  4.9942486455367419e-01  4.8237790187425528e-01  4.6491660650899874e-01  4.4697957635691549e-01  4.2849848705474436e-01  4.0939696053609903e-01  3.8958912096453707e-01  3.6897772854851191e-01  3.4745173751650038e-01  3.2488306316853027e-01  3.0112226423198313e-01  2.7599276925500665e-01  2.4928328846164810e-01  2.2073848733153342e-01  1.9004998862082018e-01  1.5685697558090159e-01  1.2078904176356166e-01  8.1650875868118228e-02  3.9989334186634161e-02  1.0000000000000000e+00  9.8401422838079411e-01  9.6803692323636947e-01  9.5207628008458556e-01  9.3614011532582908e-01  9.2023577418132452e-01  9.0437003441650987e-01  8.8854900754970001e-01  8.7277804014123561e-01  8.5706161668399494e-01  8.4140326474748683e-01  8.2580546252652554e-01  8.1026954866567391e-01  7.9479563405897025e-01  7.7938251520105828e-01  7.6402758856205699e-01  7.4872676536003813e-01  7.3347438600372017e-01  7.1826313336796155e-01  7.0308394394047125e-01  6.8792591573400119e-01  6.7277621168729729e-01  6.5761995707198218e-01  6.4244012917100624e-01  6.2721743718421308e-01  6.1193018993137738e-01  5.9655414844124977e-01  5.8106235990907751e-01  5.6542496873864934e-01  5.4960899941123997e-01  5.3357810468166589e-01  5.1729227101172603e-01  5.0070747111176916e-01  4.8377525084475959e-01  4.6644223440194521e-01  4.4864952742224623e-01  4.3033199247017162e-01  4.1141736503881254e-01  3.9182517150075358e-01  3.7146540490079488e-01  3.5023691488835407e-01  3.2802548644253215e-01  3.0470164794619786e-01  2.8011843432587247e-01  2.5410980680180845e-01  2.2649159751212436e-01  1.9706959165766558e-01  1.6566541422260192e-01  1.3218254203364735e-01  9.6749698364329659e-02  5.9964006479444588e-02  1.0000000000000000e+00  9.8403958218933019e-01  9.6808771463821297e-01  9.5215270284089282e-01  9.3624248874135874e-01  9.2036454908704224e-01  9.0452579570016078e-01  8.8873247652575682e-01  8.7299007795443384e-01  8.5730322906437051e-01  8.4167560817284992e-01  8.2610985181535612e-01  8.1060746605976441e-01  7.9516873990761583e-01  7.7979266041386197e-01  7.6447682905499981e-01  7.4921737878247885e-01  7.3400889110649814e-01  7.1884431245934877e-01  7.0371486898263003e-01  6.8860997876428232e-01  6.7351716041441001e-01  6.5842193670757510e-01  6.4330773182693413e-01  6.2815576051436517e-01  6.1294490715121464e-01  5.9765159245548871e-01  5.8224962507051670e-01  5.6671003482314697e-01  5.5100088383171442e-01  5.3508705093223163e-01  5.1892998405881552e-01  5.0248741427063981e-01  4.8571302410750522e-01  4.6855606199738459e-01  4.5096089379722304e-01  4.3286648277951328e-01  4.1420579161356047e-01  3.9490510639808346e-01  3.7488329808996729e-01  3.5405106969323896e-01  3.3231030604741402e-01  3.0955378184052762e-01  2.8566575987733872e-01  2.6052455037289962e-01  2.3400911387024234e-01  2.0601355633021703e-01  1.7647597844374222e-01  1.4543039256292650e-01  1.1308645045684752e-01  7.9914693969172695e-02  1.0000000000000000e+00  9.8407187947450825e-01  9.6815244251049559e-01  9.5225013801318914e-01  9.3637306125757691e-01  9.2052884920563149e-01  9.0472457903226500e-01  8.8896666894628928e-01  8.7326078121960382e-01  8.5761172760946336e-01  8.4202337733416599e-01  8.2649856763878082e-01  8.1103901685192947e-01  7.9564523971391543e-01  7.8031646465336213e-01  7.6505055259984200e-01  7.4984391683849971e-01  7.3469144333482783e-01  7.1958641087969244e-01  7.0452041032306012e-01  6.8948326207660360e-01  6.7446293096748644e-01  6.5944543741525663e-01  6.4441476377811269e-01  6.2935275457130158e-01  6.1423900909718909e-01  5.9905076484304787e-01  5.8376276980091035e-01  5.6834714165070954e-01  5.5277321153876702e-01  5.3700735000868982e-01  5.2101277255718381e-01  5.0474932239435100e-01  4.8817322846581312e-01  4.7123683795644544e-01  4.5388832489143810e-01  4.3607138103818777e-01  4.1772490376719551e-01  3.9878271078005534e-01  3.7917333876707315e-01  3.5882003096673420e-01  3.3764110233884653e-01  3.1555101542411707e-01  2.9246274289719987e-01  2.6829238371762670e-01  2.4296757568867622e-01  2.1644194131764516e-01  1.8871818617589312e-01  1.5988117732247753e-01  1.3013629193252163e-01  9.9833416646828155e-02  1.0000000000000000e+00  9.8411099591714624e-01  9.6823084801660697e-01  9.5236818265790923e-01  9.3653127926193203e-01  9.2072796540620749e-01  9.0496551510104095e-01  8.8925054990928343e-01  8.7358894281700639e-01  8.5798572489489267e-01  8.4244499479569102e-01  8.2696983106861799e-01  8.1156220718262950e-01  7.9622290906041482e-01  7.8095145484222805e-01  7.6574601652480501e-01  7.5060334305418819e-01  7.3551868439024526e-01  7.2048571600294675e-01  7.0549646320429826e-01  6.9054122466388346e-01  6.7560849439945825e-01  6.6068488147680093e-01  6.4575502659602335e-01  6.3080151468718826e-01  6.1580478259128668e-01  6.0074302087200093e-01  5.8559206880392389e-01  5.7032530163798489e-01  5.5491350939375939e-01  5.3932476673363494e-01  5.2352429403567857e-01  5.0747431076061422e-01  4.9113388385981060e-01  4.7445877670583975e-01  4.5740130850249577e-01  4.3991024140029650e-01  4.2193072428789624e-01  4.0340434111243823e-01  3.8426934175176902e-01  3.6446118118669352e-01  3.4391356693401842e-01  3.2256032668471191e-01  3.0033856816498655e-01  2.7719380924792897e-01  2.5308796315642085e-01  2.2801111577191455e-01  2.0199754533227737e-01  1.7514467203580344e-01  1.4762964682894908e-01  1.1971220728891938e-01  1.0000000000000000e+00  9.8415677001337343e-01  9.6832260325355302e-01  9.5250633610485702e-01  9.3671646316432500e-01  9.2096103325265521e-01  9.0524754836731947e-01  8.8958286563832423e-01  8.7397310232320857e-01  8.5842354388248343e-01  8.4293855515241489e-01  8.2752149457904656e-01  8.1217463140999158e-01  7.9689906567100355e-01  7.8169465068923316e-01  7.6655991786714317e-01  7.5149200336067878e-01  7.3648657627215830e-01  7.2153776793181712e-01  7.0663810181178777e-01  6.9177842359279329e-01  6.7694783088813915e-01  6.6213360212401962e-01  6.4732112408382791e-01  6.3249381765362689e-01  6.1763306136646223e-01  6.0271811245046869e-01  5.8772602526348205e-01  5.7263156728091036e-01  5.5740713324776758e-01  5.4202265879093270e-01  5.2644553583558207e-01  5.1064053376336871e-01  4.9456973266466775e-01  4.7819247868635217e-01  4.6146537697796314e-01  4.4434234600797295e-01  4.2677476939282183e-01  4.0871179974747418e-01  3.9010089598330205e-01  3.7088871408782464e-01  3.5102252482253171e-01  3.3045240106221041e-01  3.0913449686531630e-01  2.8703580662015349e-01  2.6414078577477595e-01  2.4046000918867402e-01  2.1604042450649735e-01  1.9097546349554098e-01  1.6541124288662903e-01  1.3954311464423649e-01  1.0000000000000000e+00  9.8420900787481558e-01  9.6842731744317256e-01  9.5266400587316291e-01  9.3692781304206985e-01  9.2122703894280655e-01  9.0556944384663485e-01  8.8996215150587410e-01  8.7441155555676886e-01  8.5892322921346886e-01  8.4350183828718295e-01  8.2815105750625251e-01  8.1287349005322396e-01  7.9767059017773323e-01  7.8254258869249094e-01  7.6748842111590887e-01  7.5250565818992909e-01  7.3759043847589834e-01  7.2273740271541709e-01  7.0793962963783474e-01  6.9318857290316394e-01  6.7847399889129933e-01  6.6378392508989481e-01  6.4910455890049257e-01  6.3442023678506354e-01  6.1971336382687359e-01  6.0496435400061166e-01  5.9015157176586908e-01  5.7525127605691595e-01  5.6023756839988392e-01  5.4508234783154608e-01  5.2975527664445399e-01  5.1422376291633631e-01  4.9845296854607224e-01  4.8240585546422454e-01  4.6604328829808284e-01  4.4932421970488512e-01  4.3220599569127494e-01  4.1464483353050141e-01  3.9659654541223632e-01  3.7801760735062534e-01  3.5886670437429996e-01  3.3910691541934385e-01  3.1870872319464372e-01  2.9765402077082359e-01  2.7594119169795756e-01  2.5359109187881523e-01  2.3065327353295773e-01  2.0721102655929272e-01  1.8338293130859951e-01  1.5931820661424598e-01  1.0000000000000000e+00  9.8426748614413462e-01  9.6854454157987746e-01  9.5284051317746987e-01  9.3716441478693890e-01  9.2152482626950227e-01  9.0592979518054462e-01  8.9038674150831043e-01  8.7490236571975211e-01  8.5948256026130954e-01  8.4413232458406906e-01  8.2885568369697027e-01  8.1365561019411259e-01  7.9853394965222257e-01  7.8349134925293784e-01  7.6852718945277188e-01  7.5363951850237576e-01  7.3882498960692389e-01  7.2407880052232554e-01  7.0939463539920233e-01  6.9476460872079027e-01  6.8017921123597180e-01  6.6562725787006327e-01  6.5109583771177992e-01  6.3657026633609959e-01  6.2203404094526960e-01  6.0746879911567842e-01  5.9285428235700977e-01  5.7816830626377702e-01  5.6338673982567478e-01  5.4848349754129810e-01  5.3343054945772861e-01  5.1819795628219645e-01  5.0275393947590941e-01  4.8706499999705144e-01  4.7109610442684402e-01  4.5481096396206216e-01  4.3817244057655097e-01  4.2114312583415514e-01  4.0368615132744640e-01  3.8576630464925804e-01  3.6735153860661124e-01  3.4841496834178065e-01  3.2893744017371634e-01  3.0891070874235765e-01  2.8834114818782647e-01  2.6725371709000068e-01  2.4569557757225496e-01  2.2373837250852016e-01  2.0147784618165218e-01  1.7902957342582418e-01  1.0000000000000000e+00  9.8433195420210007e-01  9.6867377239825825e-01  9.5303509823348864e-01  9.3742524657649251e-01  9.2185310430604295e-01  9.0632703370477641e-01  8.9085477893236487e-01  8.7544337589339605e-01  8.6009906569840444e-01  8.4482721182709131e-01  8.2963222103196221e-01  8.1451746796359603e-01  7.9948522345353523e-01  7.8453658635702606e-01  7.6967141883577372e-01  7.5488828495132432e-01  7.4018439244361978e-01  7.2555553758832680e-01  7.1099605306285274e-01  6.9649875880774981e-01  6.8205491595195344e-01  6.6765418398317622e-01  6.5328458149738799e-01  6.3893245106525620e-01  6.2458242902447869e-01  6.1021742136629920e-01  5.9581858736056437e-01  5.8136533319425177e-01  5.6683531873343806e-01  5.5220448162357072e-01  5.3744708440198152e-01  5.2253579221625845e-01  5.0744179125233790e-01  4.9213496122717165e-01  4.7658411944980522e-01  4.6075735913272714e-01  4.4462251087800109e-01  4.2814776337743088e-01  4.1130248669779945e-01  3.9405830756728971e-01  3.7639048790341062e-01  3.5827965029492992e-01  3.3971386917113794e-01  3.2069109268921808e-01  3.0122176515138410e-01  2.8133137448814477e-01  2.6106246241970510e-01  2.4047545198957632e-01  2.1964757087574180e-01  1.9866933079506122e-01  1.0000000000000000e+00  9.8440213610923377e-01  9.6881445607766548e-01  9.5324692553011292e-01  9.3770918561819117e-01  9.2221045564637227e-01  9.0675943829922478e-01  8.9136422798390313e-01  8.7603222264879699e-01  8.6077003931896401e-01  8.4558343349513865e-01  8.3047722249003242e-01  8.1545521271936305e-01  8.0052013092341257e-01  7.8567355926697524e-01  7.7091587425128039e-01  7.5624618937135824e-01  7.4166230146747214e-01  7.2716064075131204e-01  7.1273622453906815e-01  6.9838261479768371e-01  6.8409187971213048e-01  6.6985455961678109e-01  6.5565963781121905e-01  6.4149451701117122e-01  6.2734500248324088e-01  6.1319529329657219e-01  5.9902798361987331e-01  5.8482407662940650e-01  5.7056301441161772e-01  5.5622272829115349e-01  5.4177971534853919e-01  5.2720914857724521e-01  5.1248503023604086e-01  4.9758040054019564e-01  4.8246761693484286e-01  4.6711872276461686e-01  4.5150592801214390e-01  4.3560222848241908e-01  4.1938219248529263e-01  4.0282294415973868e-01  3.8590536756042421e-01  3.6861554171545269e-01  3.5094638902914987e-01  3.3289947202242343e-01  3.1448680235497561e-01  2.9573243312230840e-01  2.7667350523787215e-01  2.5736034671651947e-01  2.3785523811912024e-01  2.1822962308086932e-01  1.0000000000000000e+00  9.8447773245901016e-01  9.6896599187630417e-01  9.5347508916084311e-01  9.3801501514036778e-01  9.2259534508566599e-01  9.0722514585150671e-01  8.9191288617764453e-01  8.7666635054487285e-01  8.6149255686135295e-01  8.4639767815972655e-01  8.3138696841209403e-01  8.1646469251479226e-01  8.0163406045613894e-01  7.8689716565686341e-01  7.7225492746459934e-01  7.5770703779097315e-01  7.4325191190345563e-01  7.2888664342594434e-01  7.1460696366437215e-01  7.0040720545981616e-01  6.8628027188605401e-01  6.7221761025711413e-01  6.5820919210071471e-01  6.4424349999527142e-01  6.3030752247376409e-01  6.1638675858259440e-01  6.0246523416670006e-01  5.8852553255661622e-01  5.7454884308591792e-01  5.6051503179897821e-01  5.4640273985120791e-01  5.3218951648619994e-01  5.1785199511522795e-01  5.0336612291812977e-01  4.8870745647585878e-01  4.7385153809188174e-01  4.5877436937517008e-01  4.4345299982691577e-01  4.2786624774586185e-01  4.1199556743566224e-01  3.9582606860085506e-01  3.7934767855724616e-01  3.6255641281440754e-01  3.4545568264830384e-01  3.2805751964062912e-01  3.1038354186203715e-01  2.9246543751574705e-01  2.7434472253787850e-01  2.5607156904552542e-01  2.3770262642713458e-01  1.0000000000000000e+00  9.8455842221402379e-01  9.6912773577695821e-01  9.5371861825090165e-01  9.3834143159915928e-01  9.2300612864800669e-01  9.0772216219182122e-01  8.9249839730753899e-01  8.7734302730002955e-01  8.6226349358205001e-01  8.4726640969837375e-01  8.3235748963090117e-01  8.1754148046773290e-01  8.0282209948267447e-01  7.8820197565152106e-01  7.7368259562739106e-01  7.5926425420963584e-01  7.4494600937034527e-01  7.3072564195066869e-01  7.1659962020828871e-01  7.0256306949042147e-01  6.8860974742758940e-01  6.7473202519725317e-01  6.6092087559953638e-01  6.4716586892771921e-01  6.3345517791352701e-01  6.1977559339306154e-01  6.0611255278683374e-01  5.9245018403169059e-01  5.7877136825910747e-01  5.6505782529801973e-01  5.5129022700172026e-01  5.3744834445847034e-01  5.2351123632728269e-01  5.0945748679455150e-01  4.9526550287171411e-01  4.8091388176391497e-01  4.6638185952693156e-01  4.5164985171418354e-01  4.3670009449335451e-01  4.2151738981867154e-01  4.0608994947276733e-01  3.9041031882523475e-01  3.7447634091790055e-01  3.5829209481868468e-01  3.4186871090732129e-01  3.2522493501179989e-01  3.0838729267345172e-01  2.9138970799797881e-01  2.7427247310081498e-01  2.5708055189215512e-01  1.0000000000000000e+00  9.8464386455139874e-01  9.6929900417192238e-01  9.5397648248110700e-01  9.3868705206038705e-01  9.2344106287523953e-01  9.0824837337205333e-01  8.9311826483403478e-01  8.7805935943919133e-01  8.6307954234738327e-01  8.4818588805051320e-01  8.3338459114807073e-01  8.1868090165760210e-01  8.0407906493480519e-01  7.8958226626004091e-01  7.7519258014666448e-01  7.6091092444194786e-01  7.4673701932416958e-01  7.3266935135099154e-01  7.1870514278629705e-01  7.0484032652792639e-01  6.9106952708028391e-01  6.7738604816788506e-01  6.6378186777342507e-01  6.5024764161290605e-01  6.3677271633752985e-01  6.2334515408511548e-01  6.0995177040063986e-01  5.9657818801379492e-01  5.8320890950708992e-01  5.6982741253305469e-01  5.5641627193816579e-01  5.4295731390597590e-01  5.2943180800352685e-01  5.1582070373193190e-01  5.0210491872447793e-01  4.8826568591593750e-01  4.7428496654569435e-01  4.6014593436103141e-01  4.4583353333360043e-01  4.3133510595391478e-01  4.1664108103702507e-01  4.0174569837511820e-01  3.8664773232717248e-01  3.7135115821833720e-01  3.5586568636100935e-01  3.4020707275055445e-01  3.2439710935025318e-01  3.0846320800712579e-01  2.9243752693317532e-01  2.7635564856411376e-01  1.0000000000000000e+00  9.8473370072322397e-01  9.6947907758762142e-01  9.5424759768954948e-01  9.3905042170788644e-01  9.2389831429474467e-01  9.0880155717280509e-01  8.9376986553887261e-01  8.7881230823412326e-01  8.6393723202701866e-01  8.4915219026298605e-01  8.3446387606392680e-01  8.1987806020877640e-01  8.0539953379243734e-01  7.9103205574360669e-01  7.7677830528191760e-01  7.6263983941141344e-01  7.4861705558124836e-01  7.3470915969656159e-01  7.2091413973423246e-01  7.0722874531158997e-01  6.9364847367371973e-01  6.8016756270972134e-01  6.6677899178373357e-01  6.5347449137668723e-01  6.4024456278372777e-01  6.2707850940416676e-01  6.1396448149895078e-01  6.0088953667663558e-01  5.8783971880111874e-01  5.7480015848583810e-01  5.6175519883386271e-01  5.4868855057175137e-01  5.3558348115771237e-01  5.2242304274332874e-01  5.0919034391607454e-01  4.9586886977980987e-01  4.8244285391454961e-01  4.6889770380129847e-01  4.5522047805103838e-01  4.4140040886240023e-01  4.2742945622333517e-01  4.1330287132624194e-01  3.9901973573527089e-01  3.8458343094881370e-01  3.7000198201216256e-01  3.5528821174232272e-01  3.4045964284597396e-01  3.2553809778547488e-01  3.1054897326311337e-01  2.9552020666133955e-01  1.0000000000000000e+00  9.8482755592838633e-01  9.6966720443630217e-01  9.5453083152195795e-01  9.3943002142637033e-01  9.2437596898764118e-01  9.0937939473175022e-01  8.9445046331211941e-01  8.7959870577246069e-01  8.6483294599399385e-01  8.5016123159694312e-01  8.3559076949564826e-01  8.2112786625509870e-01  8.0677787336301654e