<?xml version="1.0"?>
<VTKFile type="UnstructuredGrid"  version="0.1"  >
<UnstructuredGrid>
<Piece  NumberOfPoints="2601" NumberOfCells="5000">
<Points>
<DataArray  type="Float64"  NumberOfComponents="3"  format="ascii">0 0 0  0.02 0 0  0.04 0 0  0.06 0 0  0.08 0 0  0.1 0 0  0.12 0 0  0.14 0 0  0.16 0 0  0.18 0 0  0.2 0 0  0.22 0 0  0.24 0 0  0.26 0 0  0.28 0 0  0.3 0 0  0.32 0 0  0.34 0 0  0.36 0 0  0.38 0 0  0.4 0 0  0.42 0 0  0.44 0 0  0.46 0 0  0.48 0 0  0.5 0 0  0.52 0 0  0.54 0 0  0.5600000000000001 0 0  0.58 0 0  0.6 0 0  0.62 0 0  0.64 0 0  0.66 0 0  0.68 0 0  0.7 0 0  0.72 0 0  0.74 0 0  0.76 0 0  0.78 0 0  0.8 0 0  0.82 0 0  0.84 0 0  0.86 0 0  0.88 0 0  0.9 0 0  0.92 0 0  0.9399999999999999 0 0  0.96 0 0  0.98 0 0  1 0 0  0 0.02 0  0.02 0.02 0  0.04 0.02 0  0.06 0.02 0  0.08 0.02 0  0.1 0.02 0  0.12 0.02 0  0.14 0.02 0  0.16 0.02 0  0.18 0.02 0  0.2 0.02 0  0.22 0.02 0  0.24 0.02 0  0.26 0.02 0  0.28 0.02 0  0.3 0.02 0  0.32 0.02 0  0.34 0.02 0  0.36 0.02 0  0.38 0.02 0  0.4 0.02 0  0.42 0.02 0  0.44 0.02 0  0.46 0.02 0  0.48 0.02 0  0.5 0.02 0  0.52 0.02 0  0.54 0.02 0  0.5600000000000001 0.02 0  0.58 0.02 0  0.6 0.02 0  0.62 0.02 0  0.64 0.02 0  0.66 0.02 0  0.68 0.02 0  0.7 0.02 0  0.72 0.02 0  0.74 0.02 0  0.76 0.02 0  0.78 0.02 0  0.8 0.02 0  0.82 0.02 0  0.84 0.02 0  0.86 0.02 0  0.88 0.02 0  0.9 0.02 0  0.92 0.02 0  0.9399999999999999 0.02 0  0.96 0.02 0  0.98 0.02 0  1 0.02 0  0 0.04 0  0.02 0.04 0  0.04 0.04 0  0.06 0.04 0  0.08 0.04 0  0.1 0.04 0  0.12 0.04 0  0.14 0.04 0  0.16 0.04 0  0.18 0.04 0  0.2 0.04 0  0.22 0.04 0  0.24 0.04 0  0.26 0.04 0  0.28 0.04 0  0.3 0.04 0  0.32 0.04 0  0.34 0.04 0  0.36 0.04 0  0.38 0.04 0  0.4 0.04 0  0.42 0.04 0  0.44 0.04 0  0.46 0.04 0  0.48 0.04 0  0.5 0.04 0  0.52 0.04 0  0.54 0.04 0  0.5600000000000001 0.04 0  0.58 0.04 0  0.6 0.04 0  0.62 0.04 0  0.64 0.04 0  0.66 0.04 0  0.68 0.04 0  0.7 0.04 0  0.72 0.04 0  0.74 0.04 0  0.76 0.04 0  0.78 0.04 0  0.8 0.04 0  0.82 0.04 0  0.84 0.04 0  0.86 0.04 0  0.88 0.04 0  0.9 0.04 0  0.92 0.04 0  0.9399999999999999 0.04 0  0.96 0.04 0  0.98 0.04 0  1 0.04 0  0 0.06 0  0.02 0.06 0  0.04 0.06 0  0.06 0.06 0  0.08 0.06 0  0.1 0.06 0  0.12 0.06 0  0.14 0.06 0  0.16 0.06 0  0.18 0.06 0  0.2 0.06 0  0.22 0.06 0  0.24 0.06 0  0.26 0.06 0  0.28 0.06 0  0.3 0.06 0  0.32 0.06 0  0.34 0.06 0  0.36 0.06 0  0.38 0.06 0  0.4 0.06 0  0.42 0.06 0  0.44 0.06 0  0.46 0.06 0  0.48 0.06 0  0.5 0.06 0  0.52 0.06 0  0.54 0.06 0  0.5600000000000001 0.06 0  0.58 0.06 0  0.6 0.06 0  0.62 0.06 0  0.64 0.06 0  0.66 0.06 0  0.68 0.06 0  0.7 0.06 0  0.72 0.06 0  0.74 0.06 0  0.76 0.06 0  0.78 0.06 0  0.8 0.06 0  0.82 0.06 0  0.84 0.06 0  0.86 0.06 0  0.88 0.06 0  0.9 0.06 0  0.92 0.06 0  0.9399999999999999 0.06 0  0.96 0.06 0  0.98 0.06 0  1 0.06 0  0 0.08 0  0.02 0.08 0  0.04 0.08 0  0.06 0.08 0  0.08 0.08 0  0.1 0.08 0  0.12 0.08 0  0.14 0.08 0  0.16 0.08 0  0.18 0.08 0  0.2 0.08 0  0.22 0.08 0  0.24 0.08 0  0.26 0.08 0  0.28 0.08 0  0.3 0.08 0  0.32 0.08 0  0.34 0.08 0  0.36 0.08 0  0.38 0.08 0  0.4 0.08 0  0.42 0.08 0  0.44 0.08 0  0.46 0.08 0  0.48 0.08 0  0.5 0.08 0  0.52 0.08 0  0.54 0.08 0  0.5600000000000001 0.08 0  0.58 0.08 0  0.6 0.08 0  0.62 0.08 0  0.64 0.08 0  0.66 0.08 0  0.68 0.08 0  0.7 0.08 0  0.72 0.08 0  0.74 0.08 0  0.76 0.08 0  0.78 0.08 0  0.8 0.08 0  0.82 0.08 0  0.84 0.08 0  0.86 0.08 0  0.88 0.08 0  0.9 0.08 0  0.92 0.08 0  0.9399999999999999 0.08 0  0.96 0.08 0  0.98 0.08 0  1 0.08 0  0 0.1 0  0.02 0.1 0  0.04 0.1 0  0.06 0.1 0  0.08 0.1 0  0.1 0.1 0  0.12 0.1 0  0.14 0.1 0  0.16 0.1 0  0.18 0.1 0  0.2 0.1 0  0.22 0.1 0  0.24 0.1 0  0.26 0.1 0  0.28 0.1 0  0.3 0.1 0  0.32 0.1 0  0.34 0.1 0  0.36 0.1 0  0.38 0.1 0  0.4 0.1 0  0.42 0.1 0  0.44 0.1 0  0.46 0.1 0  0.48 0.1 0  0.5 0.1 0  0.52 0.1 0  0.54 0.1 0  0.5600000000000001 0.1 0  0.58 0.1 0  0.6 0.1 0  0.62 0.1 0  0.64 0.1 0  0.66 0.1 0  0.68 0.1 0  0.7 0.1 0  0.72 0.1 0  0.74 0.1 0  0.76 0.1 0  0.78 0.1 0  0.8 0.1 0  0.82 0.1 0  0.84 0.1 0  0.86 0.1 0  0.88 0.1 0  0.9 0.1 0  0.92 0.1 0  0.9399999999999999 0.1 0  0.96 0.1 0  0.98 0.1 0  1 0.1 0  0 0.12 0  0.02 0.12 0  0.04 0.12 0  0.06 0.12 0  0.08 0.12 0  0.1 0.12 0  0.12 0.12 0  0.14 0.12 0  0.16 0.12 0  0.18 0.12 0  0.2 0.12 0  0.22 0.12 0  0.24 0.12 0  0.26 0.12 0  0.28 0.12 0  0.3 0.12 0  0.32 0.12 0  0.34 0.12 0  0.36 0.12 0  0.38 0.12 0  0.4 0.12 0  0.42 0.12 0  0.44 0.12 0  0.46 0.12 0  0.48 0.12 0  0.5 0.12 0  0.52 0.12 0  0.54 0.12 0  0.5600000000000001 0.12 0  0.58 0.12 0  0.6 0.12 0  0.62 0.12 0  0.64 0.12 0  0.66 0.12 0  0.68 0.12 0  0.7 0.12 0  0.72 0.12 0  0.74 0.12 0  0.76 0.12 0  0.78 0.12 0  0.8 0.12 0  0.82 0.12 0  0.84 0.12 0  0.86 0.12 0  0.88 0.12 0  0.9 0.12 0  0.92 0.12 0  0.9399999999999999 0.12 0  0.96 0.12 0  0.98 0.12 0  1 0.12 0  0 0.14 0  0.02 0.14 0  0.04 0.14 0  0.06 0.14 0  0.08 0.14 0  0.1 0.14 0  0.12 0.14 0  0.14 0.14 0  0.16 0.14 0  0.18 0.14 0  0.2 0.14 0  0.22 0.14 0  0.24 0.14 0  0.26 0.14 0  0.28 0.14 0  0.3 0.14 0  0.32 0.14 0  0.34 0.14 0  0.36 0.14 0  0.38 0.14 0  0.4 0.14 0  0.42 0.14 0  0.44 0.14 0  0.46 0.14 0  0.48 0.14 0  0.5 0.14 0  0.52 0.14 0  0.54 0.14 0  0.5600000000000001 0.14 0  0.58 0.14 0  0.6 0.14 0  0.62 0.14 0  0.64 0.14 0  0.66 0.14 0  0.68 0.14 0  0.7 0.14 0  0.72 0.14 0  0.74 0.14 0  0.76 0.14 0  0.78 0.14 0  0.8 0.14 0  0.82 0.14 0  0.84 0.14 0  0.86 0.14 0  0.88 0.14 0  0.9 0.14 0  0.92 0.14 0  0.9399999999999999 0.14 0  0.96 0.14 0  0.98 0.14 0  1 0.14 0  0 0.16 0  0.02 0.16 0  0.04 0.16 0  0.06 0.16 0  0.08 0.16 0  0.1 0.16 0  0.12 0.16 0  0.14 0.16 0  0.16 0.16 0  0.18 0.16 0  0.2 0.16 0  0.22 0.16 0  0.24 0.16 0  0.26 0.16 0  0.28 0.16 0  0.3 0.16 0  0.32 0.16 0  0.34 0.16 0  0.36 0.16 0  0.38 0.16 0  0.4 0.16 0  0.42 0.16 0  0.44 0.16 0  0.46 0.16 0  0.48 0.16 0  0.5 0.16 0  0.52 0.16 0  0.54 0.16 0  0.5600000000000001 0.16 0  0.58 0.16 0  0.6 0.16 0  0.62 0.16 0  0.64 0.16 0  0.66 0.16 0  0.68 0.16 0  0.7 0.16 0  0.72 0.16 0  0.74 0.16 0  0.76 0.16 0  0.78 0.16 0  0.8 0.16 0  0.82 0.16 0  0.84 0.16 0  0.86 0.16 0  0.88 0.16 0  0.9 0.16 0  0.92 0.16 0  0.9399999999999999 0.16 0  0.96 0.16 0  0.98 0.16 0  1 0.16 0  0 0.18 0  0.02 0.18 0  0.04 0.18 0  0.06 0.18 0  0.08 0.18 0  0.1 0.18 0  0.12 0.18 0  0.14 0.18 0  0.16 0.18 0  0.18 0.18 0  0.2 0.18 0  0.22 0.18 0  0.24 0.18 0  0.26 0.18 0  0.28 0.18 0  0.3 0.18 0  0.32 0.18 0  0.34 0.18 0  0.36 0.18 0  0.38 0.18 0  0.4 0.18 0  0.42 0.18 0  0.44 0.18 0  0.46 0.18 0  0.48 0.18 0  0.5 0.18 0  0.52 0.18 0  0.54 0.18 0  0.5600000000000001 0.18 0  0.58 0.18 0  0.6 0.18 0  0.62 0.18 0  0.64 0.18 0  0.66 0.18 0  0.68 0.18 0  0.7 0.18 0  0.72 0.18 0  0.74 0.18 0  0.76 0.18 0  0.78 0.18 0  0.8 0.18 0  0.82 0.18 0  0.84 0.18 0  0.86 0.18 0  0.88 0.18 0  0.9 0.18 0  0.92 0.18 0  0.9399999999999999 0.18 0  0.96 0.18 0  0.98 0.18 0  1 0.18 0  0 0.2 0  0.02 0.2 0  0.04 0.2 0  0.06 0.2 0  0.08 0.2 0  0.1 0.2 0  0.12 0.2 0  0.14 0.2 0  0.16 0.2 0  0.18 0.2 0  0.2 0.2 0  0.22 0.2 0  0.24 0.2 0  0.26 0.2 0  0.28 0.2 0  0.3 0.2 0  0.32 0.2 0  0.34 0.2 0  0.36 0.2 0  0.38 0.2 0  0.4 0.2 0  0.42 0.2 0  0.44 0.2 0  0.46 0.2 0  0.48 0.2 0  0.5 0.2 0  0.52 0.2 0  0.54 0.2 0  0.5600000000000001 0.2 0  0.58 0.2 0  0.6 0.2 0  0.62 0.2 0  0.64 0.2 0  0.66 0.2 0  0.68 0.2 0  0.7 0.2 0  0.72 0.2 0  0.74 0.2 0  0.76 0.2 0  0.78 0.2 0  0.8 0.2 0  0.82 0.2 0  0.84 0.2 0  0.86 0.2 0  0.88 0.2 0  0.9 0.2 0  0.92 0.2 0  0.9399999999999999 0.2 0  0.96 0.2 0  0.98 0.2 0  1 0.2 0  0 0.22 0  0.02 0.22 0  0.04 0.22 0  0.06 0.22 0  0.08 0.22 0  0.1 0.22 0  0.12 0.22 0  0.14 0.22 0  0.16 0.22 0  0.18 0.22 0  0.2 0.22 0  0.22 0.22 0  0.24 0.22 0  0.26 0.22 0  0.28 0.22 0  0.3 0.22 0  0.32 0.22 0  0.34 0.22 0  0.36 0.22 0  0.38 0.22 0  0.4 0.22 0  0.42 0.22 0  0.44 0.22 0  0.46 0.22 0  0.48 0.22 0  0.5 0.22 0  0.52 0.22 0  0.54 0.22 0  0.5600000000000001 0.22 0  0.58 0.22 0  0.6 0.22 0  0.62 0.22 0  0.64 0.22 0  0.66 0.22 0  0.68 0.22 0  0.7 0.22 0  0.72 0.22 0  0.74 0.22 0  0.76 0.22 0  0.78 0.22 0  0.8 0.22 0  0.82 0.22 0  0.84 0.22 0  0.86 0.22 0  0.88 0.22 0  0.9 0.22 0  0.92 0.22 0  0.9399999999999999 0.22 0  0.96 0.22 0  0.98 0.22 0  1 0.22 0  0 0.24 0  0.02 0.24 0  0.04 0.24 0  0.06 0.24 0  0.08 0.24 0  0.1 0.24 0  0.12 0.24 0  0.14 0.24 0  0.16 0.24 0  0.18 0.24 0  0.2 0.24 0  0.22 0.24 0  0.24 0.24 0  0.26 0.24 0  0.28 0.24 0  0.3 0.24 0  0.32 0.24 0  0.34 0.24 0  0.36 0.24 0  0.38 0.24 0  0.4 0.24 0  0.42 0.24 0  0.44 0.24 0  0.46 0.24 0  0.48 0.24 0  0.5 0.24 0  0.52 0.24 0  0.54 0.24 0  0.5600000000000001 0.24 0  0.58 0.24 0  0.6 0.24 0  0.62 0.24 0  0.64 0.24 0  0.66 0.24 0  0.68 0.24 0  0.7 0.24 0  0.72 0.24 0  0.74 0.24 0  0.76 0.24 0  0.78 0.24 0  0.8 0.24 0  0.82 0.24 0  0.84 0.24 0  0.86 0.24 0  0.88 0.24 0  0.9 0.24 0  0.92 0.24 0  0.9399999999999999 0.24 0  0.96 0.24 0  0.98 0.24 0  1 0.24 0  0 0.26 0  0.02 0.26 0  0.04 0.26 0  0.06 0.26 0  0.08 0.26 0  0.1 0.26 0  0.12 0.26 0  0.14 0.26 0  0.16 0.26 0  0.18 0.26 0  0.2 0.26 0  0.22 0.26 0  0.24 0.26 0  0.26 0.26 0  0.28 0.26 0  0.3 0.26 0  0.32 0.26 0  0.34 0.26 0  0.36 0.26 0  0.38 0.26 0  0.4 0.26 0  0.42 0.26 0  0.44 0.26 0  0.46 0.26 0  0.48 0.26 0  0.5 0.26 0  0.52 0.26 0  0.54 0.26 0  0.5600000000000001 0.26 0  0.58 0.26 0  0.6 0.26 0  0.62 0.26 0  0.64 0.26 0  0.66 0.26 0  0.68 0.26 0  0.7 0.26 0  0.72 0.26 0  0.74 0.26 0  0.76 0.26 0  0.78 0.26 0  0.8 0.26 0  0.82 0.26 0  0.84 0.26 0  0.86 0.26 0  0.88 0.26 0  0.9 0.26 0  0.92 0.26 0  0.9399999999999999 0.26 0  0.96 0.26 0  0.98 0.26 0  1 0.26 0  0 0.28 0  0.02 0.28 0  0.04 0.28 0  0.06 0.28 0  0.08 0.28 0  0.1 0.28 0  0.12 0.28 0  0.14 0.28 0  0.16 0.28 0  0.18 0.28 0  0.2 0.28 0  0.22 0.28 0  0.24 0.28 0  0.26 0.28 0  0.28 0.28 0  0.3 0.28 0  0.32 0.28 0  0.34 0.28 0  0.36 0.28 0  0.38 0.28 0  0.4 0.28 0  0.42 0.28 0  0.44 0.28 0  0.46 0.28 0  0.48 0.28 0  0.5 0.28 0  0.52 0.28 0  0.54 0.28 0  0.5600000000000001 0.28 0  0.58 0.28 0  0.6 0.28 0  0.62 0.28 0  0.64 0.28 0  0.66 0.28 0  0.68 0.28 0  0.7 0.28 0  0.72 0.28 0  0.74 0.28 0  0.76 0.28 0  0.78 0.28 0  0.8 0.28 0  0.82 0.28 0  0.84 0.28 0  0.86 0.28
[...]
<PointData  Scalars="f_17"> 
<DataArray  type="Float64"  Name="f_17"  format="ascii">1.0000000000000000e+00  9.8702155309439865e-01  9.7404004301511615e-01  9.6105179404902141e-01  9.4805292381367612e-01  9.3503923764171537e-01  9.2200616381314648e-01  9.0894869863472194e-01  8.9586135374988018e-01  8.8273810345462123e-01  8.6957233115367616e-01  8.5635677446194058e-01  8.4308346855232497e-01  8.2974368735642101e-01  8.1632788219074559e-01  8.0282561732439428e-01  7.8922550192773033e-01  7.7551511774575244e-01  7.6168094172109735e-01  7.4770826264555301e-01  7.3358109073894462e-01  7.1928205883151619e-01  7.0479231354887717e-01  6.9009139455172552e-01  6.7515709944524716e-01  6.5996533141744795e-01  6.4448992595368837e-01  6.2870245205409714e-01  6.1257198217838049e-01  5.9606482355591284e-01  5.7914420138043166e-01  5.6176988154380125e-01  5.4389771663509989e-01  5.2547909346221011e-01  5.0646025260929028e-01  4.8678143937152035e-01  4.6637582894986579e-01  4.4516814396381815e-01  4.2307284388252892e-01  3.9999170454524696e-01  3.7581050426938400e-01  3.5039435756977644e-01  3.2358091904225716e-01  2.9517006513151817e-01  2.6490737887966986e-01  2.3245581183698735e-01  1.9734223718218835e-01  1.5884276518658494e-01  1.1569216711670026e-01  6.5196121461608691e-02  0.0000000000000000e+00  1.0000000000000000e+00  9.8702549053141675e-01  9.7404777303691970e-01  9.6106330785102578e-01  9.4806825823269614e-01  9.3505845481330163e-01  9.2202934638401379e-01  9.0897594882197530e-01  8.9589279354544771e-01  8.8277387529251949e-01  8.6961259885271081e-01  8.5640172439390294e-01  8.4313331103123657e-01  8.2979865826382793e-01  8.1638824486367501e-01  8.0289166474219043e-01  7.8929755924386302e-01  7.7559354522202761e-01  7.6176613813538852e-01  7.4780066926115363e-01  7.3368119594500936e-01  7.1939040359124939e-01  7.0490949782704426e-01  6.9021808493833259e-01  6.7529403825143641e-01  6.6011334759786000e-01  6.4464994831390310e-01  6.2887552534257907e-01  6.1275928685464764e-01  5.9626770029264853e-01  5.7936418173046622e-01  5.6200872673460955e-01  5.4415746722393044e-01  5.2576213372239122e-01  5.0676939523238274e-01  4.8712003871337572e-01  4.6674793523176178e-01  4.4557871765627688e-01  4.2352806098545220e-01  4.0049940359960878e-01  3.7638086283685213e-01  3.5104095741456270e-01  3.2432250743090302e-01  2.9603365356163647e-01  2.6593415469445203e-01  2.3371369279207949e-01  1.9895649042127550e-01  1.6108395314605281e-01  1.1927473646565921e-01  7.2450133269677489e-02  1.9998666693333080e-02  1.0000000000000000e+00  9.8703677213981811e-01  9.7407033209536098e-01  9.6109721089434452e-01  9.4811363857213171e-01  9.3511550604444726e-01  9.2209831973114675e-01  9.0905715300962175e-01  8.9598659608500952e-01  8.8288070466233193e-01  8.6973294736730322e-01  8.5653615170469399e-01  8.4328244827147958e-01  8.2996321289066965e-01  8.1656900627919482e-01  8.0308951080182411e-01  7.8951346378904663e-01  7.7582858680698619e-01  7.6202151015814801e-01  7.4807769175868832e-01  7.3398132937509630e-01  7.1971526500326322e-01  7.0526087992607900e-01  6.9059797867921946e-01  6.7570465977179883e-01  6.6055717052678620e-01  6.4512974279560020e-01  6.2939440552179882e-01  6.1332076912530320e-01  5.9687577537558001e-01  5.8002340471459546e-01  5.6272433073064299e-01  5.4493550846301164e-01  5.2660967913459888e-01  5.0769476832982319e-01  4.8813314692228410e-01  4.6786071327381584e-01  4.4680573999230055e-01  4.2488740682683396e-01  4.0201391021359262e-01  3.7807999575801310e-01  3.5296369858183679e-01  3.2652199778336433e-01  2.9858501377553248e-01  2.6894838996782666e-01  2.3736393509663337e-01  2.0353059291566122e-01  1.6709501178835240e-01  1.2769435863892276e-01  8.5140962698573561e-02  3.9989334186634161e-02  1.0000000000000000e+00  9.8705540198398567e-01  9.7410765366735474e-01  9.6115337024459246e-01  9.4818887215533898e-01  9.3521014171468797e-01  9.2221277754522468e-01  9.0919194703041784e-01  8.9614233727511217e-01  8.8305810478265934e-01  8.6993282383147896e-01  8.5675943339987615e-01  8.4353018240640831e-01  8.3023657297280384e-01  8.1686930136055080e-01  8.0341819617225207e-01  7.8987215333986849e-01  7.7621906734035717e-01  7.6244575798152092e-01  7.4853789198325449e-01  7.3447989843690553e-01  7.2025487705232649e-01  7.0584449789062464e-01  6.9122889102101082e-01  6.7638652421987133e-01  6.6129406643318822e-01  6.4592623422859441e-01  6.3025561784347617e-01  6.1425248265483134e-01  5.9788454090853393e-01  5.8111668728927202e-01  5.6391069030873286e-01  5.4622482943704431e-01  5.2801346527405135e-01  5.0922652670090895e-01  4.8980889470606892e-01  4.6969965731470309e-01  4.4883120379645958e-01  4.2712811957890540e-01  4.0450583776340121e-01  3.8086900354464437e-01  3.5610952619272435e-01  3.3010435916354186e-01  3.0271323406650147e-01  2.7377705004227360e-01  2.4311878680023613e-01  2.1055155387856095e-01  1.7590444292778973e-01  1.3908850318450650e-01  1.0024009630940328e-01  5.9964006479444588e-02  1.0000000000000000e+00  9.8708131841345437e-01  9.7415959236166250e-01  9.6123155079509925e-01  9.4829363340240547e-01  9.3534194518281444e-01  9.2237221052050122e-01  9.0937972621000074e-01  8.9635931335592400e-01  8.8330526812940657e-01  8.7021131130639240e-01  8.5707053644348297e-01  8.4387535648719103e-01  8.3061744856006270e-01  8.1728769661648848e-01  8.0387613160733651e-01  7.9037186873223653e-01  7.7676304128848761e-01  7.6303673054340904e-01  7.4917889095956192e-01  7.3517426998618052e-01  7.2100632149137833e-01  7.0665711174316437e-01  6.9210721664706243e-01  6.7733560870679610e-01  6.6231953188321158e-01  6.4703436217481103e-01  6.3145345131863972e-01  6.1554795049902034e-01  5.9928661033936992e-01  5.8263555272628875e-01  5.6555800916884880e-01  5.4801401943918293e-01  5.2996008321812127e-01  5.1134875649992628e-01  4.9212818385852647e-01  4.7224155790093647e-01  4.5162649946374328e-01  4.3021435861197416e-01  4.0792945178547391e-01  3.8468828345665335e-01  3.6039886913945890e-01  3.3496041537698296e-01  3.0826388874020205e-01  2.8019454460461829e-01  2.5063849828291762e-01  2.1949718700343393e-01  1.8671618466604903e-01  1.5233708260962084e-01  1.1657717959420764e-01  7.9914693969172695e-02  1.0000000000000000e+00  9.8711441608781580e-01  9.7422592981309042e-01  9.6133141596492111e-01  9.4842746437511538e-01  9.3551033435674924e-01  9.2257590903043396e-01  9.0961964905735426e-01  8.9663654555402528e-01  8.8362107205966056e-01  8.7056713543488062e-01  8.5746802554437884e-01  8.4431636354010098e-01  8.3110404852287700e-01  8.1782220231989278e-01  8.0446111207168447e-01  7.9101017027365583e-01  7.7745781186180751e-01  7.6379144786872755e-01  7.4999739510218000e-01  7.3606080121301698e-01  7.2196556441970572e-01  7.0769424704132189e-01  6.9322798185735779e-01  6.7854637015915198e-01  6.6362737018277573e-01  6.4844717441672306e-01  6.3298007406220880e-01  6.1719830869643633e-01  6.0107189896555280e-01  5.8456845994469220e-01  5.6765299270405856e-01  5.5028765171387173e-01  5.3243148618650582e-01  5.1404015460550256e-01  4.9506561407734867e-01  4.7545579072151922e-01  4.5515424576252117e-01  4.3409986723293575e-01  4.1222664434814493e-01  3.8946362952208258e-01  3.6573527673339740e-01  3.4096248931361761e-01  3.1506495316427363e-01  2.8796572230676915e-01  2.5959959957135587e-01  2.2992754931165268e-01  1.9895976134646270e-01  1.6678869376361058e-01  1.3362738501944249e-01  9.9833416646828155e-02  1.0000000000000000e+00  9.8715455362917426e-01  9.7430637982566071e-01  9.6145253079382154e-01  9.4858977753229556e-01  9.3571456503722583e-01  9.2282296742312608e-01  9.0991064264881305e-01  8.9697278663498159e-01  8.8400408662049657e-01  8.7099867362323979e-01  8.5795007386454880e-01  8.4485115899680729e-01  8.3169409494823721e-01  8.1847028916989806e-01  8.0517033603791865e-01  7.9178396012870711e-01  7.7829995704583443e-01  7.6470613143388921e-01  7.5098923176645194e-01  7.3713488144218386e-01  7.2312750566504425e-01  7.0895025352243657e-01  6.9458491461029748e-01  6.8001182948976868e-01  6.6520979320154683e-01  6.5015595102038248e-01  6.3482568561855912e-01  6.1919249484790373e-01  6.0322785948426949e-01  5.8690110056933698e-01  5.7017922653248065e-01  5.5302677124071087e-01  5.3540562576384132e-01  5.1727486936544809e-01  4.9859060969565949e-01  4.7930584942261312e-01  4.5937040827718972e-01  4.3873094836340848e-01  4.1733118075384518e-01  3.9511237911361879e-01  3.7201440030979488e-01  3.4797752394895232e-01  3.2294558286290742e-01  2.9687106257784696e-01  2.6972305462396789e-01  2.4149900073359792e-01  2.1224067828206958e-01  1.8205311464090210e-01  1.5112114002735394e-01  1.1971220728891938e-01  1.0000000000000000e+00  9.8720155704342027e-01  9.7440059228667619e-01  9.6159436572175827e-01  9.4877985976870072e-01  9.3595373567394025e-01  9.2311228980161220e-01  9.1025140962700801e-01  8.9736652926907656e-01  8.8445258442674834e-01  8.7150396659725915e-01  8.5851447645431356e-01  8.4547727625442826e-01  8.3238484112489797e-01  8.1922890906881796e-01  8.0600042950267958e-01  7.9268951012073230e-01  7.7928536185809394e-01  7.6577624170190339e-01  7.5214939307744877e-01  7.3839098351542398e-01  7.2448603928926958e-01  7.1041837670101926e-01  6.9617052969494708e-01  6.8172367349775198e-01  6.6705754403277095e-01  6.5215035294994106e-01  6.3697869827707687e-01  6.2151747096763055e-01  6.0573975804967217e-01  5.8961674375149309e-01  5.7311761101307079e-01  5.5620944737285882e-01  5.3885716162163577e-01  5.2102342125294021e-01  5.0266862623102748e-01  4.8375094285765347e-01  4.6422643388323570e-01  4.4404933936910479e-01  4.2317258972172822e-01  4.0154867092766933e-01  3.7913101542109451e-01  3.5587616130648780e-01  3.3174700203169505e-01  3.0671751487155058e-01  2.8077934976098629e-01  2.5395045457184062e-01  2.2628529433131953e-01  1.9788492748749717e-01  1.6890317101669280e-01  1.3954311464423649e-01  1.0000000000000000e+00  9.8725522183133418e-01  9.7450815647094891e-01  9.6175630065504081e-01  9.4899687727871151e-01  9.3622679322780966e-01  9.2344259709537091e-01  9.1064043666752459e-01  8.9781601606574246e-01  8.8496455244219141e-01  8.7208073213218829e-01  8.5915866616932079e-01  8.4619184506549727e-01  8.3317309275168050e-01  8.2009451956695811e-01  8.0694747417516810e-01  7.9372249428060004e-01  7.8040925600843203e-01  7.6699652181283762e-01  7.5347208677790778e-01  7.3982272318613895e-01  7.2603412324975170e-01  7.1209083993652245e-01  6.9797622588121222e-01  6.8367237046615903e-01  6.6916003529454948e-01  6.5441858848779644e-01  6.3942593854363816e-01  6.2415846893591376e-01  6.0859097528046979e-01  5.9269660782015343e-01  5.7644682331827057e-01  5.5981135236951729e-01  5.4275819088921484e-01  5.2525362847588875e-01  5.0726233194407522e-01  4.8874751024941870e-01  4.6967119812566893e-01  4.4999471104176336e-01  4.2967934460773222e-01  4.0868741794839009e-01  3.8698379206385713e-01  3.6453802659800766e-01  3.4132736029252086e-01  3.1734068689840295e-01  2.9258360338913625e-01  2.6708435876765674e-01  2.4090004390524455e-01  2.1412159787181101e-01  1.8687532497623752e-01  1.5931820661424598e-01  1.0000000000000000e+00  9.8731531470440137e-01  9.7462860416243113e-01  9.6193762928085824e-01  9.4923988104266332e-01  9.3653253992847962e-01  9.2381243523751377e-01  9.1107600424120150e-01  8.9831925109830635e-01  8.8553770546269062e-01  8.7272638071895647e-01  8.5987973178390464e-01  8.4699161241298460e-01  8.3405523195121101e-01  8.2106311146860234e-01  8.0800703922221684e-01  7.9487802539172270e-01  7.8166625604463136e-01  7.6836104630283519e-01  7.5495079270640064e-01  7.4142292480706551e-01  7.2776385607716709e-01  7.1395893429599244e-01  6.9999239168341121e-01  6.8584729520179588e-01  6.7150549765787559e-01  6.5694759052847151e-01  6.4215285983870407e-01  6.2709924698035291e-01  6.1176331712962040e-01  5.9612023898699418e-01  5.8014378102558528e-01  5.6380633144441328e-01  5.4707895177427535e-01  5.2993147782917538e-01  5.1233268675295551e-01  4.9425055565161946e-01  4.7565264611412439e-01  4.5650666009939300e-01  4.3678122615658155e-01  4.1644698987799816e-01  3.9547809628909592e-01  3.7385415884065720e-01  3.5156279882589664e-01  3.2860279182800795e-01  3.0498774697194958e-01  2.8075003877296689e-01  2.5594439208475095e-01  2.3065012422325870e-01  2.0497072978927938e-01  1.7902957342582418e-01  1.0000000000000000e+00  9.8738157521398051e-01  9.7476141280413986e-01  9.6213756364960334e-01  9.4950781283546337e-01  9.3686964077822399e-01  9.2422018428229846e-01  9.1155619749504113e-01  8.9887401272353873e-01  8.8616950107714465e-01  8.7343803290307942e-01  8.6067443798679788e-01  8.4787296549385693e-01  8.3502724363608016e-01  8.2213023905285643e-01  8.0917421590959382e-01  7.9615069473123412e-01  7.8305041101109008e-01  7.6986327366651652e-01  7.5657832345597975e-01  7.4318369153093378e-01  7.2966655837570216e-01  7.1601311349616115e-01  7.0220851636259529e-01  6.8823685930578626e-01  6.7408113332448927e-01  6.5972319810854729e-01  6.4514375804380475e-01  6.3032234658087949e-01  6.1523732217001104e-01  5.9986588005431396e-01  5.8418408565846491e-01  5.6816693721578004e-01  5.5178846777405521e-01  5.3502189995983418e-01  5.1783987101941165e-01  5.0021475082416389e-01  4.8211908176351648e-01  4.6352617655869954e-01  4.4441091735960814e-01  4.2475080553205413e-01  4.0452731336964592e-01  3.8372758144263236e-01  3.6234648032641920e-01  3.4038900176361553e-01  3.1787284911274061e-01  2.9483095168485879e-01  2.7131344067331559e-01  2.4738844149542369e-01  2.2314096110789261e-01  1.9866933079506122e-01  1.0000000000000000e+00  9.8745371740153709e-01  9.7490600876365385e-01  9.6235523903011522e-01  9.4979951168783516e-01  9.3723663168362992e-01  9.2466406831318826e-01  9.1207891807671104e-01  8.9947786749360281e-01  8.8685715587008940e-01  8.7421253801791576e-01  8.6153924692869721e-01  8.4883195641696829e-01  8.3608474375592634e-01  8.2329105234418487e-01  8.1044365446072508e-01  7.9753461419032878e-01  7.8455525063500564e-01  7.7149610157092041e-01  7.5834688776823123e-01  7.4509647826727898e-01  7.3173285700401913e-01  7.1824309130737807e-01  7.0461330296035085e-01  6.9082864273663658e-01  6.7687326961053751e-01  6.6273033620893695e-01  6.4838198255520707e-01  6.3380934077729423e-01  6.1899255425529842e-01  6.0391081571603855e-01  5.8854243010110452e-01  5.7286490970648385e-01  5.5685511118504671e-01  5.4048942657901056e-01  5.2374404363878613e-01  5.0659529424657201e-01  4.8902011361450010e-01  4.7099663662665758e-01  4.5250496036687832e-01  4.3352810196560537e-01  4.1405317587882889e-01  3.9407280080650908e-01  3.7358671863250587e-01  3.5260356040023044e-01  3.3114262330776029e-01  3.0923542977685098e-01  2.8692673949370689e-01  2.6427461335409991e-01  2.4134914271923424e-01  2.1822962308086932e-01  1.0000000000000000e+00  9.8753143150458289e-01  9.7506177073913425e-01  9.6258971902098878e-01  9.5011372073533185e-01  9.3763192810890483e-01  9.2514216600139465e-01  9.1264189673181850e-01  9.0012818495750613e-01  8.8759766262637829e-01  8.7504649402908841e-01  8.6247034098618791e-01  8.4986432821698454e-01  8.3722300895177704e-01  8.2454033086852863e-01  8.1180960246006950e-01  7.9902345997022284e-01  7.8617383507885286e-01  7.7325192356936612e-01  7.6024815528083611e-01  7.4715216573479781e-01  7.3395276993897873e-01  7.2063793901329654e-01  7.0719478046551754e-01  6.9360952317531521e-01  6.7986750843887811e-01  6.6595318879760379e-01  6.5185013684316273e-01  6.3754106678074773e-01  6.2300787226993115e-01  6.0823168497903624e-01  5.9319295941649297e-01  5.7787159097089980e-01  5.6224707571941557e-01  5.4629872244571775e-01  5.3000592938940705e-01  5.1334854038666178e-01  4.9630729697039061e-01  4.7886440416247944e-01  4.6100422726082535e-01  4.4271413359230810e-01  4.2398548510886142e-01  4.0481477244905356e-01  3.8520485602902343e-01  3.6516624280020654e-01  3.4471827868711569e-01  3.2389008144025966e-01  3.0272098980358847e-01  2.8126028560393118e-01  2.5956598579528450e-01  2.3770262642713458e-01  1.0000000000000000e+00  9.8761438572398197e-01  9.7522803330034880e-01  9.6284000088523680e-01  9.5044909438829839e-01  9.3805383414978849e-01  9.2565242168147299e-01  9.1324270650870676e-01  9.0082215315333025e-01  8.8838780830183994e-01  8.7593626821079973e-01  8.6346364641207907e-01  8.5096554179453376e-01  8.3843700715693770e-01  8.2587251835020825e-01  8.1326594415653930e-01  8.0061051709056208e-01  7.8789880535507351e-01  7.7512268624372405e-01  7.6227332135838732e-01  7.4934113410352732e-01  7.3631579003840908e-01  7.2318618081615449e-01  7.0994041262343199e-01  6.9656580026442561e-01  6.8304886831779577e-01  6.6937536114756757e-01  6.5553026398200664e-01  6.4149783780383585e-01  6.2726167143657185e-01  6.1280475498027609e-01  5.9810957965657829e-01  5.8315827016876642e-01  5.6793275685127709e-01  5.5241499612500256e-01  5.3658724898857002e-01  5.2043242827642444e-01  5.0393452589455912e-01  4.8707913072415349e-01  4.6985404565831029e-01  4.5225000734345416e-01  4.3426150342759168e-01  4.1588766815676265e-01  3.9713321693332243e-01  3.7800935379461797e-01  3.5853455450898980e-01  3.3873509726251916e-01  3.1864519229381771e-01  2.9830656504209802e-01  2.7776738895706699e-01  2.5708055189215512e-01  1.0000000000000000e+00  9.8770222804614827e-01  9.7540409054463750e-01  9.6310502106648033e-01  9.5080420575403679e-01  9.3850055193033544e-01  9.2619265681656671e-01  9.1387877641276583e-01  9.0155679460056304e-01  8.8922419253309803e-01  8.7687801838617008e-01  8.6451485755691593e-01  8.5213080341225900e-01  8.3972142870981392e-01  8.2728175783982472e-01  8.1480624006923930e-01  8.0228872400976314e-01  7.8972243358250960e-01  7.7709994581500375e-01  7.6441317088453675e-01  7.5165333491856134e-01  7.3881096618194431e-01  7.2587588542717740e-01  7.1283720136271855e-01  6.9968331241287496e-01  6.8640191620741808e-01  6.7298002855844763e-01  6.5940401406425475e-01  6.4565963093303946e-01  6.3173209314957512e-01  6.1760615371761540e-01  6.0326621339492170e-01  5.8869646007832510e-01  5.7388104475437163e-01  5.5880430063559883e-01  5.4345101263401685e-01  5.2780674449441356e-01  5.1185823044158840e-01  4.9559383669405371e-01  4.7900409514051279e-01  4.6208230622696117e-01  4.4482519997322817e-01  4.2723363244618728e-01  4.0931327978053822e-01  3.9107527363357669e-01  3.7253670291656049e-01  3.5372089090719860e-01  3.3465735073457753e-01  3.1538133338435920e-01  2.9593291729897941e-01  2.7635564856411376e-01  1.0000000000000000e+00  9.8779458810850640e-01  9.7558919984130366e-01  9.6338366084087967e-01  9.5117755424254369e-01  9.3897019122880754e-01  9.2676058173286069e-01  9.1454740536157941e-01  9.0232898261343653e-01  8.9010324647396843e-01  8.7786771448146794e-01  8.6561946136889922e-01  8.5335509240521978e-01  8.4107071758107443e-01  8.2876192681115990e-01  8.1642376635958758e-01  8.0405071673666650e-01  7.9163667236741408e-01  7.7917492339578365e-01  7.6665814006644262e-01  7.5407836022074437e-01  7.4142698055853806e-01  7.2869475245633764e-01  7.1587178329923351e-01  7.0294754448328312e-01  6.8991088748157936e-01  6.7675006964525530e-01  6.6345279173408267e-01  6.5000624954197228e-01  6.3639720239941011e-01  6.2261206179081474e-01  6.0863700380437002e-01  5.9445810960583545e-01  5.8006153854682962e-01  5.6543373880432157e-01  5.5056170048489672e-01  5.3543325574783296e-01  5.2003742947751730e-01  5.0436484207475929e-01  4.8840816268676640e-01  4.7216260628057810e-01  4.5562646105806365e-01  4.3880162367045705e-01  4.2169410876888735e-01  4.0431448754463312e-01  3.8667819894179023e-01  3.6880567015329840e-01  3.5072218375607239e-01  3.3245744144548905e-01  3.1404480138067492e-01  2.9552020666133955e-01  1.0000000000000000e+00  9.8789107909475593e-01  9.7578258563582032e-01  9.6367475205856756e-01  9.5156757328954622e-01  9.3946077924440652e-01  9.2735380751135243e-01  9.1524577630370807e-01  9.0313545777078319e-01  8.9102125176413338e-01  8.7890116016692865e-01  8.6677276190802388e-01  8.5463318880002870e-01  8.4247910236291734e