<?xml version="1.0"?>
<VTKFile type="UnstructuredGrid"  version="0.1"  >
<UnstructuredGrid>
<Piece  NumberOfPoints="2601" NumberOfCells="5000">
<Points>
<DataArray  type="Float64"  NumberOfComponents="3"  format="ascii">0 0 0  0.02 0 0  0.04 0 0  0.06 0 0  0.08 0 0  0.1 0 0  0.12 0 0  0.14 0 0  0.16 0 0  0.18 0 0  0.2 0 0  0.22 0 0  0.24 0 0  0.26 0 0  0.28 0 0  0.3 0 0  0.32 0 0  0.34 0 0  0.36 0 0  0.38 0 0  0.4 0 0  0.42 0 0  0.44 0 0  0.46 0 0  0.48 0 0  0.5 0 0  0.52 0 0  0.54 0 0  0.5600000000000001 0 0  0.58 0 0  0.6 0 0  0.62 0 0  0.64 0 0  0.66 0 0  0.68 0 0  0.7 0 0  0.72 0 0  0.74 0 0  0.76 0 0  0.78 0 0  0.8 0 0  0.82 0 0  0.84 0 0  0.86 0 0  0.88 0 0  0.9 0 0  0.92 0 0  0.9399999999999999 0 0  0.96 0 0  0.98 0 0  1 0 0  0 0.02 0  0.02 0.02 0  0.04 0.02 0  0.06 0.02 0  0.08 0.02 0  0.1 0.02 0  0.12 0.02 0  0.14 0.02 0  0.16 0.02 0  0.18 0.02 0  0.2 0.02 0  0.22 0.02 0  0.24 0.02 0  0.26 0.02 0  0.28 0.02 0  0.3 0.02 0  0.32 0.02 0  0.34 0.02 0  0.36 0.02 0  0.38 0.02 0  0.4 0.02 0  0.42 0.02 0  0.44 0.02 0  0.46 0.02 0  0.48 0.02 0  0.5 0.02 0  0.52 0.02 0  0.54 0.02 0  0.5600000000000001 0.02 0  0.58 0.02 0  0.6 0.02 0  0.62 0.02 0  0.64 0.02 0  0.66 0.02 0  0.68 0.02 0  0.7 0.02 0  0.72 0.02 0  0.74 0.02 0  0.76 0.02 0  0.78 0.02 0  0.8 0.02 0  0.82 0.02 0  0.84 0.02 0  0.86 0.02 0  0.88 0.02 0  0.9 0.02 0  0.92 0.02 0  0.9399999999999999 0.02 0  0.96 0.02 0  0.98 0.02 0  1 0.02 0  0 0.04 0  0.02 0.04 0  0.04 0.04 0  0.06 0.04 0  0.08 0.04 0  0.1 0.04 0  0.12 0.04 0  0.14 0.04 0  0.16 0.04 0  0.18 0.04 0  0.2 0.04 0  0.22 0.04 0  0.24 0.04 0  0.26 0.04 0  0.28 0.04 0  0.3 0.04 0  0.32 0.04 0  0.34 0.04 0  0.36 0.04 0  0.38 0.04 0  0.4 0.04 0  0.42 0.04 0  0.44 0.04 0  0.46 0.04 0  0.48 0.04 0  0.5 0.04 0  0.52 0.04 0  0.54 0.04 0  0.5600000000000001 0.04 0  0.58 0.04 0  0.6 0.04 0  0.62 0.04 0  0.64 0.04 0  0.66 0.04 0  0.68 0.04 0  0.7 0.04 0  0.72 0.04 0  0.74 0.04 0  0.76 0.04 0  0.78 0.04 0  0.8 0.04 0  0.82 0.04 0  0.84 0.04 0  0.86 0.04 0  0.88 0.04 0  0.9 0.04 0  0.92 0.04 0  0.9399999999999999 0.04 0  0.96 0.04 0  0.98 0.04 0  1 0.04 0  0 0.06 0  0.02 0.06 0  0.04 0.06 0  0.06 0.06 0  0.08 0.06 0  0.1 0.06 0  0.12 0.06 0  0.14 0.06 0  0.16 0.06 0  0.18 0.06 0  0.2 0.06 0  0.22 0.06 0  0.24 0.06 0  0.26 0.06 0  0.28 0.06 0  0.3 0.06 0  0.32 0.06 0  0.34 0.06 0  0.36 0.06 0  0.38 0.06 0  0.4 0.06 0  0.42 0.06 0  0.44 0.06 0  0.46 0.06 0  0.48 0.06 0  0.5 0.06 0  0.52 0.06 0  0.54 0.06 0  0.5600000000000001 0.06 0  0.58 0.06 0  0.6 0.06 0  0.62 0.06 0  0.64 0.06 0  0.66 0.06 0  0.68 0.06 0  0.7 0.06 0  0.72 0.06 0  0.74 0.06 0  0.76 0.06 0  0.78 0.06 0  0.8 0.06 0  0.82 0.06 0  0.84 0.06 0  0.86 0.06 0  0.88 0.06 0  0.9 0.06 0  0.92 0.06 0  0.9399999999999999 0.06 0  0.96 0.06 0  0.98 0.06 0  1 0.06 0  0 0.08 0  0.02 0.08 0  0.04 0.08 0  0.06 0.08 0  0.08 0.08 0  0.1 0.08 0  0.12 0.08 0  0.14 0.08 0  0.16 0.08 0  0.18 0.08 0  0.2 0.08 0  0.22 0.08 0  0.24 0.08 0  0.26 0.08 0  0.28 0.08 0  0.3 0.08 0  0.32 0.08 0  0.34 0.08 0  0.36 0.08 0  0.38 0.08 0  0.4 0.08 0  0.42 0.08 0  0.44 0.08 0  0.46 0.08 0  0.48 0.08 0  0.5 0.08 0  0.52 0.08 0  0.54 0.08 0  0.5600000000000001 0.08 0  0.58 0.08 0  0.6 0.08 0  0.62 0.08 0  0.64 0.08 0  0.66 0.08 0  0.68 0.08 0  0.7 0.08 0  0.72 0.08 0  0.74 0.08 0  0.76 0.08 0  0.78 0.08 0  0.8 0.08 0  0.82 0.08 0  0.84 0.08 0  0.86 0.08 0  0.88 0.08 0  0.9 0.08 0  0.92 0.08 0  0.9399999999999999 0.08 0  0.96 0.08 0  0.98 0.08 0  1 0.08 0  0 0.1 0  0.02 0.1 0  0.04 0.1 0  0.06 0.1 0  0.08 0.1 0  0.1 0.1 0  0.12 0.1 0  0.14 0.1 0  0.16 0.1 0  0.18 0.1 0  0.2 0.1 0  0.22 0.1 0  0.24 0.1 0  0.26 0.1 0  0.28 0.1 0  0.3 0.1 0  0.32 0.1 0  0.34 0.1 0  0.36 0.1 0  0.38 0.1 0  0.4 0.1 0  0.42 0.1 0  0.44 0.1 0  0.46 0.1 0  0.48 0.1 0  0.5 0.1 0  0.52 0.1 0  0.54 0.1 0  0.5600000000000001 0.1 0  0.58 0.1 0  0.6 0.1 0  0.62 0.1 0  0.64 0.1 0  0.66 0.1 0  0.68 0.1 0  0.7 0.1 0  0.72 0.1 0  0.74 0.1 0  0.76 0.1 0  0.78 0.1 0  0.8 0.1 0  0.82 0.1 0  0.84 0.1 0  0.86 0.1 0  0.88 0.1 0  0.9 0.1 0  0.92 0.1 0  0.9399999999999999 0.1 0  0.96 0.1 0  0.98 0.1 0  1 0.1 0  0 0.12 0  0.02 0.12 0  0.04 0.12 0  0.06 0.12 0  0.08 0.12 0  0.1 0.12 0  0.12 0.12 0  0.14 0.12 0  0.16 0.12 0  0.18 0.12 0  0.2 0.12 0  0.22 0.12 0  0.24 0.12 0  0.26 0.12 0  0.28 0.12 0  0.3 0.12 0  0.32 0.12 0  0.34 0.12 0  0.36 0.12 0  0.38 0.12 0  0.4 0.12 0  0.42 0.12 0  0.44 0.12 0  0.46 0.12 0  0.48 0.12 0  0.5 0.12 0  0.52 0.12 0  0.54 0.12 0  0.5600000000000001 0.12 0  0.58 0.12 0  0.6 0.12 0  0.62 0.12 0  0.64 0.12 0  0.66 0.12 0  0.68 0.12 0  0.7 0.12 0  0.72 0.12 0  0.74 0.12 0  0.76 0.12 0  0.78 0.12 0  0.8 0.12 0  0.82 0.12 0  0.84 0.12 0  0.86 0.12 0  0.88 0.12 0  0.9 0.12 0  0.92 0.12 0  0.9399999999999999 0.12 0  0.96 0.12 0  0.98 0.12 0  1 0.12 0  0 0.14 0  0.02 0.14 0  0.04 0.14 0  0.06 0.14 0  0.08 0.14 0  0.1 0.14 0  0.12 0.14 0  0.14 0.14 0  0.16 0.14 0  0.18 0.14 0  0.2 0.14 0  0.22 0.14 0  0.24 0.14 0  0.26 0.14 0  0.28 0.14 0  0.3 0.14 0  0.32 0.14 0  0.34 0.14 0  0.36 0.14 0  0.38 0.14 0  0.4 0.14 0  0.42 0.14 0  0.44 0.14 0  0.46 0.14 0  0.48 0.14 0  0.5 0.14 0  0.52 0.14 0  0.54 0.14 0  0.5600000000000001 0.14 0  0.58 0.14 0  0.6 0.14 0  0.62 0.14 0  0.64 0.14 0  0.66 0.14 0  0.68 0.14 0  0.7 0.14 0  0.72 0.14 0  0.74 0.14 0  0.76 0.14 0  0.78 0.14 0  0.8 0.14 0  0.82 0.14 0  0.84 0.14 0  0.86 0.14 0  0.88 0.14 0  0.9 0.14 0  0.92 0.14 0  0.9399999999999999 0.14 0  0.96 0.14 0  0.98 0.14 0  1 0.14 0  0 0.16 0  0.02 0.16 0  0.04 0.16 0  0.06 0.16 0  0.08 0.16 0  0.1 0.16 0  0.12 0.16 0  0.14 0.16 0  0.16 0.16 0  0.18 0.16 0  0.2 0.16 0  0.22 0.16 0  0.24 0.16 0  0.26 0.16 0  0.28 0.16 0  0.3 0.16 0  0.32 0.16 0  0.34 0.16 0  0.36 0.16 0  0.38 0.16 0  0.4 0.16 0  0.42 0.16 0  0.44 0.16 0  0.46 0.16 0  0.48 0.16 0  0.5 0.16 0  0.52 0.16 0  0.54 0.16 0  0.5600000000000001 0.16 0  0.58 0.16 0  0.6 0.16 0  0.62 0.16 0  0.64 0.16 0  0.66 0.16 0  0.68 0.16 0  0.7 0.16 0  0.72 0.16 0  0.74 0.16 0  0.76 0.16 0  0.78 0.16 0  0.8 0.16 0  0.82 0.16 0  0.84 0.16 0  0.86 0.16 0  0.88 0.16 0  0.9 0.16 0  0.92 0.16 0  0.9399999999999999 0.16 0  0.96 0.16 0  0.98 0.16 0  1 0.16 0  0 0.18 0  0.02 0.18 0  0.04 0.18 0  0.06 0.18 0  0.08 0.18 0  0.1 0.18 0  0.12 0.18 0  0.14 0.18 0  0.16 0.18 0  0.18 0.18 0  0.2 0.18 0  0.22 0.18 0  0.24 0.18 0  0.26 0.18 0  0.28 0.18 0  0.3 0.18 0  0.32 0.18 0  0.34 0.18 0  0.36 0.18 0  0.38 0.18 0  0.4 0.18 0  0.42 0.18 0  0.44 0.18 0  0.46 0.18 0  0.48 0.18 0  0.5 0.18 0  0.52 0.18 0  0.54 0.18 0  0.5600000000000001 0.18 0  0.58 0.18 0  0.6 0.18 0  0.62 0.18 0  0.64 0.18 0  0.66 0.18 0  0.68 0.18 0  0.7 0.18 0  0.72 0.18 0  0.74 0.18 0  0.76 0.18 0  0.78 0.18 0  0.8 0.18 0  0.82 0.18 0  0.84 0.18 0  0.86 0.18 0  0.88 0.18 0  0.9 0.18 0  0.92 0.18 0  0.9399999999999999 0.18 0  0.96 0.18 0  0.98 0.18 0  1 0.18 0  0 0.2 0  0.02 0.2 0  0.04 0.2 0  0.06 0.2 0  0.08 0.2 0  0.1 0.2 0  0.12 0.2 0  0.14 0.2 0  0.16 0.2 0  0.18 0.2 0  0.2 0.2 0  0.22 0.2 0  0.24 0.2 0  0.26 0.2 0  0.28 0.2 0  0.3 0.2 0  0.32 0.2 0  0.34 0.2 0  0.36 0.2 0  0.38 0.2 0  0.4 0.2 0  0.42 0.2 0  0.44 0.2 0  0.46 0.2 0  0.48 0.2 0  0.5 0.2 0  0.52 0.2 0  0.54 0.2 0  0.5600000000000001 0.2 0  0.58 0.2 0  0.6 0.2 0  0.62 0.2 0  0.64 0.2 0  0.66 0.2 0  0.68 0.2 0  0.7 0.2 0  0.72 0.2 0  0.74 0.2 0  0.76 0.2 0  0.78 0.2 0  0.8 0.2 0  0.82 0.2 0  0.84 0.2 0  0.86 0.2 0  0.88 0.2 0  0.9 0.2 0  0.92 0.2 0  0.9399999999999999 0.2 0  0.96 0.2 0  0.98 0.2 0  1 0.2 0  0 0.22 0  0.02 0.22 0  0.04 0.22 0  0.06 0.22 0  0.08 0.22 0  0.1 0.22 0  0.12 0.22 0  0.14 0.22 0  0.16 0.22 0  0.18 0.22 0  0.2 0.22 0  0.22 0.22 0  0.24 0.22 0  0.26 0.22 0  0.28 0.22 0  0.3 0.22 0  0.32 0.22 0  0.34 0.22 0  0.36 0.22 0  0.38 0.22 0  0.4 0.22 0  0.42 0.22 0  0.44 0.22 0  0.46 0.22 0  0.48 0.22 0  0.5 0.22 0  0.52 0.22 0  0.54 0.22 0  0.5600000000000001 0.22 0  0.58 0.22 0  0.6 0.22 0  0.62 0.22 0  0.64 0.22 0  0.66 0.22 0  0.68 0.22 0  0.7 0.22 0  0.72 0.22 0  0.74 0.22 0  0.76 0.22 0  0.78 0.22 0  0.8 0.22 0  0.82 0.22 0  0.84 0.22 0  0.86 0.22 0  0.88 0.22 0  0.9 0.22 0  0.92 0.22 0  0.9399999999999999 0.22 0  0.96 0.22 0  0.98 0.22 0  1 0.22 0  0 0.24 0  0.02 0.24 0  0.04 0.24 0  0.06 0.24 0  0.08 0.24 0  0.1 0.24 0  0.12 0.24 0  0.14 0.24 0  0.16 0.24 0  0.18 0.24 0  0.2 0.24 0  0.22 0.24 0  0.24 0.24 0  0.26 0.24 0  0.28 0.24 0  0.3 0.24 0  0.32 0.24 0  0.34 0.24 0  0.36 0.24 0  0.38 0.24 0  0.4 0.24 0  0.42 0.24 0  0.44 0.24 0  0.46 0.24 0  0.48 0.24 0  0.5 0.24 0  0.52 0.24 0  0.54 0.24 0  0.5600000000000001 0.24 0  0.58 0.24 0  0.6 0.24 0  0.62 0.24 0  0.64 0.24 0  0.66 0.24 0  0.68 0.24 0  0.7 0.24 0  0.72 0.24 0  0.74 0.24 0  0.76 0.24 0  0.78 0.24 0  0.8 0.24 0  0.82 0.24 0  0.84 0.24 0  0.86 0.24 0  0.88 0.24 0  0.9 0.24 0  0.92 0.24 0  0.9399999999999999 0.24 0  0.96 0.24 0  0.98 0.24 0  1 0.24 0  0 0.26 0  0.02 0.26 0  0.04 0.26 0  0.06 0.26 0  0.08 0.26 0  0.1 0.26 0  0.12 0.26 0  0.14 0.26 0  0.16 0.26 0  0.18 0.26 0  0.2 0.26 0  0.22 0.26 0  0.24 0.26 0  0.26 0.26 0  0.28 0.26 0  0.3 0.26 0  0.32 0.26 0  0.34 0.26 0  0.36 0.26 0  0.38 0.26 0  0.4 0.26 0  0.42 0.26 0  0.44 0.26 0  0.46 0.26 0  0.48 0.26 0  0.5 0.26 0  0.52 0.26 0  0.54 0.26 0  0.5600000000000001 0.26 0  0.58 0.26 0  0.6 0.26 0  0.62 0.26 0  0.64 0.26 0  0.66 0.26 0  0.68 0.26 0  0.7 0.26 0  0.72 0.26 0  0.74 0.26 0  0.76 0.26 0  0.78 0.26 0  0.8 0.26 0  0.82 0.26 0  0.84 0.26 0  0.86 0.26 0  0.88 0.26 0  0.9 0.26 0  0.92 0.26 0  0.9399999999999999 0.26 0  0.96 0.26 0  0.98 0.26 0  1 0.26 0  0 0.28 0  0.02 0.28 0  0.04 0.28 0  0.06 0.28 0  0.08 0.28 0  0.1 0.28 0  0.12 0.28 0  0.14 0.28 0  0.16 0.28 0  0.18 0.28 0  0.2 0.28 0  0.22 0.28 0  0.24 0.28 0  0.26 0.28 0  0.28 0.28 0  0.3 0.28 0  0.32 0.28 0  0.34 0.28 0  0.36 0.28 0  0.38 0.28 0  0.4 0.28 0  0.42 0.28 0  0.44 0.28 0  0.46 0.28 0  0.48 0.28 0  0.5 0.28 0  0.52 0.28 0  0.54 0.28 0  0.5600000000000001 0.28 0  0.58 0.28 0  0.6 0.28 0  0.62 0.28 0  0.64 0.28 0  0.66 0.28 0  0.68 0.28 0  0.7 0.28 0  0.72 0.28 0  0.74 0.28 0  0.76 0.28 0  0.78 0.28 0  0.8 0.28 0  0.82 0.28 0  0.84 0.28 0  0.86 0.28
[...]
<PointData  Scalars="f_17"> 
<DataArray  type="Float64"  Name="f_17"  format="ascii">1.0000000000000000e+00  9.8008732479469307e-01  9.6020426044879692e-01  9.4037678364520672e-01  9.2063069300944267e-01  9.0099085611247032e-01  8.8148083134705901e-01  8.6212261185159555e-01  8.4293642696215665e-01  8.2394058051202246e-01  8.0515131678089846e-01  7.8658270846789613e-01  7.6824656245602974e-01  7.5015233983098673e-01  7.3230708704156067e-01  7.1471537538363417e-01  6.9737924620530511e-01  6.8029815938772786e-01  6.6346894276183477e-01  6.4688574017645306e-01  6.3053995593557477e-01  6.1442019326561848e-01  5.9851218434785425e-01  5.8279870924297661e-01  5.6725950072488229e-01  5.5187113160239964e-01  5.3660688050413008e-01  5.2143657128138254e-01  5.0632638007532260e-01  4.9123860259474794e-01  4.7613137211353779e-01  4.6095831590794784e-01  4.4566813399694127e-01  4.3020407864641907e-01  4.1450330541685654e-01  3.9849605542002003e-01  3.8210461204545754e-01  3.6524195064139892e-01  3.4780996122015362e-01  3.2969706286449851e-01  3.1077492686556402e-01  2.9089385016149927e-01  2.6987600216932328e-01  2.4750515322919292e-01  2.2351021015254380e-01  1.9753693320419780e-01  1.6909454809537081e-01  1.3744112187799482e-01  1.0129304065723831e-01  5.7937271966873857e-02  0.0000000000000000e+00  1.0000000000000000e+00  9.8009247735647764e-01  9.6021326601545764e-01  9.4038932403327524e-01  9.2064670133585202e-01  9.0101035004984775e-01  8.8150387080948023e-01  8.6214928679525971e-01  8.4296685349161538e-01  8.2397489972117544e-01  8.0518969472087853e-01  7.8662533671544366e-01  7.6829365909356573e-01  7.5020415077223401e-01  7.3236388768937555e-01  7.1477747263457703e-01  6.9744698083414303e-01  6.8037190886096588e-01  6.6354912454554194e-01  6.4697281562205466e-01  6.3063443484950665e-01  6.1452263929644113e-01  5.9862322135967116e-01  5.8291902888947300e-01  5.6738987149762521e-01  5.5201240970532939e-01  5.3676002301056702e-01  5.2160265217071822e-01  5.0650660993886376e-01  4.9143435306619565e-01  4.7634420645279629e-01  4.6119002769870610e-01  4.4592079668898937e-01  4.3048010981117335e-01  4.1480555129884283e-01  3.9882790401068896e-01  3.8247014708920446e-01  3.6564616580071080e-01  3.4825906511384891e-01  3.3019892581634408e-01  3.1133975710471873e-01  2.9153525871984054e-01  2.7061276391358646e-01  2.4836430538649235e-01  2.2453296389611496e-01  1.9879122865111562e-01  1.7070567502054143e-01  1.3967967157440325e-01  1.0487351640136468e-01  6.5189905323658245e-02  1.9998666693333080e-02  1.0000000000000000e+00  9.8010355024445195e-01  9.6023502117494486e-01  9.4042158627623018e-01  9.2068947681770452e-01  9.0106376690042700e-01  8.8156814759721958e-01  8.6222471856301408e-01  8.4305380634683613e-01  8.2407380958399046e-01  8.0530106830328552e-01  7.8674975390475954e-01  7.6843177639490934e-01  7.5035670568650736e-01  7.3253170401614764e-01  7.1496146675660011e-01  6.9764816908949845e-01  6.8059141615303698e-01  6.6378819438733383e-01  6.4723282186471787e-01  6.3091689540963380e-01  6.1482923227755448e-01  5.9895580406615312e-01  5.8327966036375223e-01  5.6778083938417645e-01  5.5243626247253375e-01  5.3721960886424425e-01  5.2210116640049131e-01  5.0704765299306698e-01  4.9202200241549005e-01  4.7698310637088120e-01  4.6188550260343986e-01  4.4667899587055221e-01  4.3130819457661401e-01  4.1571194035260439e-01  3.9982260021105803e-01  3.8356518017752383e-01  3.6685620411494435e-01  3.4960227979309849e-01  3.3169824322844266e-01  3.1302472812318377e-01  2.9344494589775538e-01  2.7280038314252036e-01  2.5090504583110723e-01  2.2753789233146646e-01  2.0243353209387627e-01  1.7527325739700611e-01  1.4568568181072530e-01  1.1328963254458796e-01  7.7878889572286711e-02  3.9989334186634161e-02  1.0000000000000000e+00  9.8012093567086078e-01  9.6026970657032573e-01  9.4047357714592006e-01  9.2075891314143721e-01  9.0115091935936387e-01  8.8167340757700541e-01  8.6234859164227529e-01  8.4319690985456175e-01  8.2423687322163952e-01  8.0548493698139745e-01  7.8695539229583344e-01  7.6866027496567257e-01  7.5060928813975536e-01  7.3280973618107159e-01  7.1526646704528440e-01  6.9798182070377546e-01  6.8095558129110911e-01  6.6418493077104312e-01  6.4766440199219866e-01  6.3138582904051421e-01  6.1533829278596708e-01  5.9950805945953500e-01  5.8387850997455759e-01  5.6843005751324049e-01  5.5314005061902138e-01  5.3798265864887962e-01  5.2292873592006806e-01  5.0794566019831344e-01  4.9299714027340380e-01  4.7804298619296709e-01  4.6303883419770925e-01  4.4793581642027891e-01  4.3268016284861632e-01  4.1721271976153296e-01  4.0146836465681551e-01  3.8537529248196989e-01  3.6885414177413756e-01  3.5181692261408481e-01  3.3416570280930974e-01  3.1579100916083563e-01  2.9656991905479907e-01  2.7636388355025115e-01  2.5501650831830591e-01  2.3235199463920195e-01  2.0817610942036502e-01  1.8228429766320170e-01  1.5448760540589387e-01  1.2467873526146869e-01  9.2975493571450532e-02  5.9964006479444588e-02  1.0000000000000000e+00  9.8014472901902960e-01  9.6031733688203036e-01  9.4054518897722639e-01  9.2085478528068443e-01  9.0127147573266175e-01  8.8181921928412899e-01  8.6252037744900178e-01  8.4339553779916132e-01  8.2446336400443965e-01  8.0574046918065378e-01  7.8724130933934067e-01  7.6897809382852167e-01  7.5096070981299989e-01  7.3319665803115786e-01  7.1569099725595087e-01  6.9844629506458789e-01  6.8146258267531856e-01  6.6473731173577355e-01  6.4826531104214480e-01  6.3203874122931181e-01  6.1604704549577927e-01  6.0027689441015053e-01  5.8471212278301132e-01  5.6933365647332035e-01  5.5411942682394033e-01  5.3904427017718970e-01  5.2407980959692579e-01  5.0919431550564120e-01  4.9435254141977131e-01  4.7951553032170752e-01  4.6464038643702199e-01  4.4968000630023386e-01  4.3458276203746721e-01  4.1929212888801243e-01  4.0374624839460999e-01  3.8787741897112676e-01  3.7161150783807384e-01  3.5486728486722202e-01  3.3755569420527720e-01  3.1957911260351324e-01  3.0083071188982169e-01  2.8119418183707223e-01  2.6054434611562016e-01  2.3874974278614533e-01  2.1567925265103360e-01  1.9121662477652723e-01  1.6528936205256892e-01  1.3792068100249041e-01  1.0930928954955346e-01  7.9914693969172695e-02  1.0000000000000000e+00  9.8017490324468515e-01  9.6037780042222320e-01  9.4063619320068559e-01  9.2097673776794065e-01  9.0142495226405850e-01  8.8200497062510508e-01  8.6273933424868754e-01  8.4364881562491201e-01  8.2475226948795821e-01  8.0606650770370536e-01  7.8760619446508584e-01  7.6938375862553932e-01  7.5140932023248019e-01  7.3369062854250278e-01  7.1623300900667863e-01  6.9903931690308674e-01  6.8210989546095413e-01  6.6544253646383356e-01  6.4903244143654604e-01  6.3287218161095249e-01  6.1695165492803039e-01  6.0125803836718672e-01  5.8577573389729409e-01  5.7048630631669039e-01  5.5536841119109315e-01  5.4039771100983514e-01  5.2554677756549883e-01  5.1078497842780124e-01  4.9607834524596289e-01  4.8138942150590508e-01  4.6667708734660324e-01  4.5189635920565085e-01  4.3699816259728141e-01  4.2192907754120640e-01  4.0663105860683479e-01  3.9104113617336539e-01  3.7509111400701300e-01  3.5870729355058251e-01  3.4181028251686590e-01  3.2431499332631969e-01  3.0613102070553483e-01  2.8716373215717034e-01  2.6731664797596782e-01  2.4649607840844062e-01  2.2461956147910511e-01  2.0163033909592359e-01  1.7752049132201711e-01  1.5236405693515251e-01  1.2635543060811044e-01  9.9833416646828155e-02  1.0000000000000000e+00  9.8021136567779699e-01  9.6045089019437380e-01  9.4074624923798700e-01  9.2112428511754185e-01  9.0161071233684043e-01  8.8222986940144754e-01  8.6300450957736530e-01  8.4395562473236008e-01  8.2510229747182895e-01  8.0646157749561775e-01  7.8804837858249199e-01  7.6987539296507157e-01  7.5195302015057475e-01  7.3428930749882104e-01  7.1688990009893305e-01  6.9975799769332858e-01  6.8289431658285871e-01  6.6629705461068645e-01  6.4996185746520763e-01  6.3388178466483558e-01  6.1804727369100720e-01  6.0244610082219652e-01  5.8706333729374904e-01  5.7188129947013355e-01  5.5687949177421137e-01  5.4203454118239147e-01  5.2732012218107049e-01  5.1270687121373082e-01  4.9816228986953298e-01  4.8365063643670347e-01  4.6913280606850882e-01  4.5456620084698923e-01  4.3990459273676219e-01  4.2509798520883124e-01  4.1009248384036345e-01  3.9483019351422088e-01  3.7924917163325828e-01  3.6328348569194086e-01  3.4686345376066924e-01  3.2991619420402601e-01  3.1236668520449068e-01  2.9413964668087356e-01  2.7516271729347064e-01  2.5537160525987684e-01  2.3471809852880529e-01  2.1318187202172317e-01  1.9078654286809063e-01  1.6761866166611508e-01  1.4384434931931031e-01  1.1971220728891938e-01  1.0000000000000000e+00  9.8025397922191138e-01  9.6053632238092390e-01  9.4087491495493170e-01  9.2129681716771561e-01  9.0182797005349591e-01  8.8249294712000492e-01  8.6331474521467988e-01  8.4431460900318855e-01  8.2551188425300326e-01  8.0692389575231638e-01  7.8856584619190884e-01  7.7045073273402209e-01  7.5258927832213562e-01  7.3498987507077385e-01  7.1765853732732843e-01  7.0059886222492807e-01  6.8381199575056839e-01  6.6729660253861045e-01  6.5104883776891398e-01  6.3506231970393934e-01  6.1932810154353124e-01  6.0383464141410537e-01  5.8856776944659028e-01  5.7351065104298038e-01  5.5864374559661012e-01  5.4394476013334547e-01  5.2938859760490775e-01  5.1494729992845301e-01  5.0058998638324337e-01  4.8628278872762398e-01  4.7198878551013868e-01  4.5766793970123076e-01  4.4327704624260378e-01  4.2876969981377933e-01  4.1409629866792053e-01  3.9920410870711559e-01  3.8403742438584693e-01  3.6853788144330751e-01  3.5264500342629973e-01  3.3629710261499385e-01  3.1943270940452856e-01  3.0199277351782078e-01  2.8392395982085106e-01  2.6518342778856852e-01  2.4574547684171355e-01  2.2561023429400442e-01  2.0481394396958305e-01  1.8343911900833793e-01  1.6162079084930617e-01  1.3954311464423649e-01  1.0000000000000000e+00  9.8030257166314849e-01  9.6063374736573881e-01  9.4102165564090212e-01  9.2149360596443619e-01  9.0207579620657852e-01  8.8279306517512779e-01  8.6366868433814237e-01  8.4472418339302591e-01  8.2597920496021748e-01  8.0745138423631457e-01  7.8915624991909650e-01  7.7110714312236817e-01  7.5331515134685512e-01  7.3578905487835522e-01  7.1853528325611349e-01  7.0155787969997241e-01  6.8485847160940094e-01  6.6843624545512759e-01  6.5228792457880325e-01  6.3640774860207594e-01  6.2078745332878715e-01  6.0541625020906786e-01  5.9028080463028343e-01  5.7536521251833672e-01  5.6065097498926653e-01  5.4611697110686941e-01  5.3173942920746198e-01  5.1749189779061089e-01  5.0334521770542440e-01  4.8926749837236455e-01  4.7522410219397493e-01  4.6117764330023653e-01  4.4708800959484857e-01  4.3291242106807210e-01  4.1860554300539543e-01  4.0411968070491133e-01  3.8940509346905361e-01  3.7441048097666574e-01  3.5908371570997083e-01  3.4337292154501348e-01  3.2722803015293489e-01  3.1060297929380787e-01  2.9345873896525559e-01  2.7576733787457142e-01  2.5751696777130856e-01  2.3871799459857490e-01  2.1940921751112713e-01  1.9966295174334067e-01  1.7958662996919597e-01  1.5931820661424598e-01  1.0000000000000000e+00  9.8035694060364620e-01  9.6074275694268885e-01  9.4118585149520073e-01  9.2171381297052257e-01  9.0235312550781888e-01  8.8312892264608911e-01  8.6406478040159729e-01  8.4518254430016404e-01  8.2650218574124901e-01  8.0804168357310346e-01  7.8981692721222829e-01  7.7184163804262862e-01  7.5412730618625878e-01  7.3668314005338109e-01  7.1951602636774048e-01  7.0263049862284821e-01  6.8602871216759398e-01  6.6971042434682904e-01  6.5367297834034488e-01  6.3791128955710963e-01  6.2241783365707282e-01  6.0718263549794493e-01  5.9219325854909399e-01  5.7743479459199654e-01  5.6288985385382106e-01  5.4853855612095703e-01  5.3435852388421345e-01  5.2032487921995307e-01  5.0641024697041193e-01  4.9258476793194933e-01  4.7881612730093082e-01  4.6506960571005873e-01  4.5130816300832799e-01  4.3749256874880738e-01  4.2358159846754406e-01  4.0953232163703018e-01  3.9530051604613298e-01  3.8084125458629209e-01  3.6610972396245850e-01  3.5106234982496787e-01  3.3565831666409129e-01  3.1986157780426472e-01  3.0364344001956450e-01  2.8698576009193655e-01  2.6988467980661157e-01  2.5235461988751773e-01  2.3443193406007748e-01  2.1617722796576333e-01  1.9767502906994280e-01  1.7902957342582418e-01  1.0000000000000000e+00  9.8041685664159395e-01  9.6086288965462474e-01  9.4136680413081564e-01  9.2195649627571019e-01  9.0265876451559190e-01  8.8349906519573418e-01  8.6450130733334396e-01  8.4568768138963391e-01  8.2707851752162365e-01  8.0869216924678022e-01  7.9054491889015743e-01  7.7265090158033656e-01  7.5502204491898761e-01  7.3766802177381707e-01  7.2059621394145823e-01  7.0381168470096367e-01  6.8731715853514797e-01  6.7111300654131456e-01  6.5519723629024007e-01  6.3956548512862410e-01  6.2421101616251540e-01  6.0912471641587695e-01  5.9429509694003713e-01  5.7970829496969378e-01  5.6534807859681213e-01  5.5119585488785006e-01  5.3723068293201681e-01  5.2342929401773886e-01  5.0976612204223892e-01  4.9621334843152870e-01  4.8274096737036748e-01  4.6931687912108871e-01  4.5590702177727643e-01  4.4247555510387515e-01  4.2898511431714564e-01  4.1539715688740431e-01  4.0167243174051859e-01  3.8777160739830535e-01  3.7365610297825724e-01  3.5928917206546723e-01  3.4463729133981580e-01  3.2967189835774552e-01  3.1437149795032859e-01  2.9872410303515246e-01  2.8272988045510972e-01  2.6640372721312955e-01  2.4977731557722130e-01  2.3289996264529214e-01  2.1583760371611441e-01  1.9866933079506122e-01  1.0000000000000000e+00  9.8048206580143138e-01  9.6099363522906767e-01  9.4156374252769248e-01  9.2222061777801634e-01  9.0299139999720168e-01  8.8390189473957925e-01  8.6497637073004408e-01  8.4623739056991598e-01  8.2770567104059489e-01  8.0939996898874189e-01  7.9133698920298956e-01  7.7353131108443784e-01  7.5599533127258067e-01  7.3873921971809797e-01  7.2177088699841563e-01  7.0509596095580540e-01  6.8871777100603060e-01  6.7263733872325626e-01  6.5685337355970663e-01  6.4136227281248792e-01  6.2615812521225334e-01  6.1123271778744825e-01  5.9657554596414242e-01  5.8217382720778299e-01  5.6801251891579074e-01  5.5407434174910219e-01  5.4033981017226229e-01  5.2678727268779257e-01  5.1339296514138200e-01  5.0013108158916830e-01  4.8697386861527642e-01  4.7389175073322037e-01  4.6085349666818748e-01  4.4782643896007529e-01  4.3477676248048996e-01  4.2166988108021425e-01  4.0847092549376229e-01  3.9514536938318845e-01  3.8165982312911317e-01  3.6798302511853020e-01  3.5408705530540896e-01  3.3994878195735945e-01  3.2555152471465226e-01  3.1088686975372304e-01  2.9595650184572286e-01  2.8077382519676414e-01  2.6536504482475332e-01  2.4976930829250996e-01  2.3403752213505627e-01  2.1822962308086932e-01  1.0000000000000000e+00  9.8055229163000190e-01  9.6113443858358538e-01  9.4177582870971333e-01  9.2250505037183028e-01  9.0334960759340599e-01  8.8433567966561422e-01  8.6548791979072837e-01  8.4682928785119316e-01  8.2838091287858640e-01  8.1016198124965122e-01  7.9218964705777917e-01  7.7447896149803730e-01  7.5704281846372412e-01  7.3989191388544362e-01  7.2303471665354668e-01  7.0647744925580203e-01  6.9022407653897666e-01  6.7427630127058635e-01  6.5863356544090479e-01  6.4329305651137048e-01  6.2824971809078045e-01  6.1349626481314379e-01  5.9902320151040667e-01  5.8481884713103216e-01  5.7086936426560142e-01  5.5715879562016468e-01  5.4366910934742951e-01  5.3038025582927117e-01  5.1727023932966321e-01  5.0431520893641557e-01  4.9148957441596869e-01  4.7876615404807482e-01  4.6611636320595917e-01  4.5351045439697335e-01  4.4091782162446580e-01  4.2830738413211111e-01  4.1564806656064407e-01  4.0290939376931456e-01  3.9006221820022430e-01  3.7707959438557570e-01  3.6393780715480117e-01  3.5061754489208868e-01  3.3710518418190399e-01  3.2339411529693401e-01  3.0948598940029720e-01  2.9539171309741075e-01  2.8113196718217948e-01  2.6673700718343696e-01  2.5224554381097830e-01  2.3770262642713458e-01  1.0000000000000000e+00  9.8062723714096944e-01  9.6128470363051477e-01  9.4200216329736797e-01  9.2280858517069919e-01  9.0373186070271305e-01  8.8479856544560542e-01  8.6603375978369079e-01  8.4746082384568977e-01  8.2910132220843724e-01  8.1097489445495330e-01  7.9309916806908232e-01  7.7548969053748806e-01  7.5815987789016415e-01  7.4112097724572490e-01  7.2438204124118721e-01  7.0794991252174433e-01  6.9182921674855014e-01  6.7602236285651973e-01  6.6052954956476162e-01  6.4534877741519814e-01  6.3047586589660232e-01  6.1590447550895966e-01  6.0162613494523831e-01  5.8763027392399858e-01  5.7390426260821992e-01  5.6043345900622454e-01  5.4720126628445898e-01  5.3418920254523472e-01  5.2137698635221796e-01  5.0874264213811449e-01  4.9626263061428094e-01  4.8391201042282966e-01  4.7166463851190860e-01  4.5949341802563448e-01  4.4737060378011811e-01  4.3526817646172639e-01  4.2315829722581305e-01  4.1101385391387518e-01  3.9880910794064750e-01  3.8652044606609887e-01  3.7412723255351843e-01  3.6161274330830490e-01  3.4896514341769619e-01  3.3617844290962762e-01  3.2325333434118408e-01  3.1019778516041541e-01  2.9702723723190566e-01  2.8376426919728381e-01  2.7043761901331814e-01  2.5708055189215512e-01  1.0000000000000000e+00  9.8070658668929722e-01  9.6144379698933613e-01  9.4224179100964967e-01  9.2312993877025107e-01  9.0413653951879347e-01  8.8528858551059841e-01  8.6661156487214408e-01  8.4812929869862508e-01  8.2986380802510984e-01  8.1183520676299537e-01  7.9406161711228029e-01  7.7655910434845288e-01  7.5934162824349394e-01  7.4242100871682415e-01  7.2580690362750655e-01  7.0950679691747609e-01  6.9352599560117423e-01  6.7786763437412467e-01  6.6253268688649802e-01  6.4751998300277702e-01  6.3282623165095642e-01  6.1844604916058388e-01  6.0437199330545066e-01  5.9059460361156113e-01  5.7710244887273732e-01  5.6388218324395156e-01  5.5091861276560339e-01  5.3819477471934252e-01  5.2569203283480437e-01  5.1339019205984515e-01  5.0126763737016800e-01  4.8930150191028388e-01  4.7746787058827550e-01  4.6574202602106907e-01  4.5409874432595471e-01  4.4251264849078736e-01  4.3095862665090484e-01  4.1941232116207522e-01  4.0785069136438584e-01  3.9625264774460894e-01  3.8459974713617379e-01  3.7287692706489750e-01  3.6107324217349979e-01  3.4918254751620559e-01  3.3720405453668034e-01  3.2514266987531576e-01  3.1300902111744450e-01  3.0081908484096409e-01  2.8859336735496977e-01  2.7635564856411376e-01  1.0000000000000000e+00  9.8079000781136294e-01  9.6161105165336835e-01  9.4249370614205064e-01  9.2346776053706159e-01  9.0456194015823455e-01  8.8580367228124346e-01  8.6721889114818707e-01  8.4883187726297904e-01  8.3066512663270287e-01  8.1273924606918391e-01  7.9507287108400093e-01  7.7768260329833871e-01  7.6058296464983932e-01  7.4378636601531767e-01  7.2730308818435074e-01  7.1114127341805322e-01  6.9530692611369704e-01  6.7980392137334011e-01  6.6463402054763443e-01  6.4979689309911959e-01  6.3529014440749010e-01  6.2110934942780038e-01  6.0724809241689992e-01  5.9369801326937155e-01  5.8044886135774387e-01  5.6748855815832766e-01  5.5480327036848820e-01  5.4237749568632487e-01  5.3019416392929775e-01  5.1823475670822883e-01  5.0647944943243761e-01  4.9490727997194417e-01  4.8349634879494990e-01  4.7222405575592574e-01  4.6106737881540094e-01  4.5000319966046221e-01  4.3900868023780754e-01  4.2806169231585156e-01  4.1714129900787777e-01  4.0622828233861757e-01  3.9530570409587723e-01  3.8435947823581201e-01  3.7337892225808611e-01  3.6235724315676338e-01  3.5129190265885768e-01  3.4018479947472069e-01  3.2904220712282245e-01  3.1787441860239607e-01  3.0669507636157356e-01  2.9552020666133955e-01  1.0000000000000000e+00  9.8087715304402845e-01  9.6178577062576720e-01  9.4275685802118236e-01  9.2382063989644847e-01  9.0500628381722681e-01  8.8634166825575067e-01  8.6785318974349990e-01  8.4956560435395634e-01  8.3150189919291917e-01  8.1368319002776901e-01  7.9612864160617747e-01  7.7885540760269412e-01  7.6187858749203607e