<?xml version="1.0"?>
<VTKFile type="UnstructuredGrid"  version="0.1"  >
<UnstructuredGrid>
<Piece  NumberOfPoints="2601" NumberOfCells="5000">
<Points>
<DataArray  type="Float64"  NumberOfComponents="3"  format="ascii">0 0 0  0.02 0 0  0.04 0 0  0.06 0 0  0.08 0 0  0.1 0 0  0.12 0 0  0.14 0 0  0.16 0 0  0.18 0 0  0.2 0 0  0.22 0 0  0.24 0 0  0.26 0 0  0.28 0 0  0.3 0 0  0.32 0 0  0.34 0 0  0.36 0 0  0.38 0 0  0.4 0 0  0.42 0 0  0.44 0 0  0.46 0 0  0.48 0 0  0.5 0 0  0.52 0 0  0.54 0 0  0.5600000000000001 0 0  0.58 0 0  0.6 0 0  0.62 0 0  0.64 0 0  0.66 0 0  0.68 0 0  0.7 0 0  0.72 0 0  0.74 0 0  0.76 0 0  0.78 0 0  0.8 0 0  0.82 0 0  0.84 0 0  0.86 0 0  0.88 0 0  0.9 0 0  0.92 0 0  0.9399999999999999 0 0  0.96 0 0  0.98 0 0  1 0 0  0 0.02 0  0.02 0.02 0  0.04 0.02 0  0.06 0.02 0  0.08 0.02 0  0.1 0.02 0  0.12 0.02 0  0.14 0.02 0  0.16 0.02 0  0.18 0.02 0  0.2 0.02 0  0.22 0.02 0  0.24 0.02 0  0.26 0.02 0  0.28 0.02 0  0.3 0.02 0  0.32 0.02 0  0.34 0.02 0  0.36 0.02 0  0.38 0.02 0  0.4 0.02 0  0.42 0.02 0  0.44 0.02 0  0.46 0.02 0  0.48 0.02 0  0.5 0.02 0  0.52 0.02 0  0.54 0.02 0  0.5600000000000001 0.02 0  0.58 0.02 0  0.6 0.02 0  0.62 0.02 0  0.64 0.02 0  0.66 0.02 0  0.68 0.02 0  0.7 0.02 0  0.72 0.02 0  0.74 0.02 0  0.76 0.02 0  0.78 0.02 0  0.8 0.02 0  0.82 0.02 0  0.84 0.02 0  0.86 0.02 0  0.88 0.02 0  0.9 0.02 0  0.92 0.02 0  0.9399999999999999 0.02 0  0.96 0.02 0  0.98 0.02 0  1 0.02 0  0 0.04 0  0.02 0.04 0  0.04 0.04 0  0.06 0.04 0  0.08 0.04 0  0.1 0.04 0  0.12 0.04 0  0.14 0.04 0  0.16 0.04 0  0.18 0.04 0  0.2 0.04 0  0.22 0.04 0  0.24 0.04 0  0.26 0.04 0  0.28 0.04 0  0.3 0.04 0  0.32 0.04 0  0.34 0.04 0  0.36 0.04 0  0.38 0.04 0  0.4 0.04 0  0.42 0.04 0  0.44 0.04 0  0.46 0.04 0  0.48 0.04 0  0.5 0.04 0  0.52 0.04 0  0.54 0.04 0  0.5600000000000001 0.04 0  0.58 0.04 0  0.6 0.04 0  0.62 0.04 0  0.64 0.04 0  0.66 0.04 0  0.68 0.04 0  0.7 0.04 0  0.72 0.04 0  0.74 0.04 0  0.76 0.04 0  0.78 0.04 0  0.8 0.04 0  0.82 0.04 0  0.84 0.04 0  0.86 0.04 0  0.88 0.04 0  0.9 0.04 0  0.92 0.04 0  0.9399999999999999 0.04 0  0.96 0.04 0  0.98 0.04 0  1 0.04 0  0 0.06 0  0.02 0.06 0  0.04 0.06 0  0.06 0.06 0  0.08 0.06 0  0.1 0.06 0  0.12 0.06 0  0.14 0.06 0  0.16 0.06 0  0.18 0.06 0  0.2 0.06 0  0.22 0.06 0  0.24 0.06 0  0.26 0.06 0  0.28 0.06 0  0.3 0.06 0  0.32 0.06 0  0.34 0.06 0  0.36 0.06 0  0.38 0.06 0  0.4 0.06 0  0.42 0.06 0  0.44 0.06 0  0.46 0.06 0  0.48 0.06 0  0.5 0.06 0  0.52 0.06 0  0.54 0.06 0  0.5600000000000001 0.06 0  0.58 0.06 0  0.6 0.06 0  0.62 0.06 0  0.64 0.06 0  0.66 0.06 0  0.68 0.06 0  0.7 0.06 0  0.72 0.06 0  0.74 0.06 0  0.76 0.06 0  0.78 0.06 0  0.8 0.06 0  0.82 0.06 0  0.84 0.06 0  0.86 0.06 0  0.88 0.06 0  0.9 0.06 0  0.92 0.06 0  0.9399999999999999 0.06 0  0.96 0.06 0  0.98 0.06 0  1 0.06 0  0 0.08 0  0.02 0.08 0  0.04 0.08 0  0.06 0.08 0  0.08 0.08 0  0.1 0.08 0  0.12 0.08 0  0.14 0.08 0  0.16 0.08 0  0.18 0.08 0  0.2 0.08 0  0.22 0.08 0  0.24 0.08 0  0.26 0.08 0  0.28 0.08 0  0.3 0.08 0  0.32 0.08 0  0.34 0.08 0  0.36 0.08 0  0.38 0.08 0  0.4 0.08 0  0.42 0.08 0  0.44 0.08 0  0.46 0.08 0  0.48 0.08 0  0.5 0.08 0  0.52 0.08 0  0.54 0.08 0  0.5600000000000001 0.08 0  0.58 0.08 0  0.6 0.08 0  0.62 0.08 0  0.64 0.08 0  0.66 0.08 0  0.68 0.08 0  0.7 0.08 0  0.72 0.08 0  0.74 0.08 0  0.76 0.08 0  0.78 0.08 0  0.8 0.08 0  0.82 0.08 0  0.84 0.08 0  0.86 0.08 0  0.88 0.08 0  0.9 0.08 0  0.92 0.08 0  0.9399999999999999 0.08 0  0.96 0.08 0  0.98 0.08 0  1 0.08 0  0 0.1 0  0.02 0.1 0  0.04 0.1 0  0.06 0.1 0  0.08 0.1 0  0.1 0.1 0  0.12 0.1 0  0.14 0.1 0  0.16 0.1 0  0.18 0.1 0  0.2 0.1 0  0.22 0.1 0  0.24 0.1 0  0.26 0.1 0  0.28 0.1 0  0.3 0.1 0  0.32 0.1 0  0.34 0.1 0  0.36 0.1 0  0.38 0.1 0  0.4 0.1 0  0.42 0.1 0  0.44 0.1 0  0.46 0.1 0  0.48 0.1 0  0.5 0.1 0  0.52 0.1 0  0.54 0.1 0  0.5600000000000001 0.1 0  0.58 0.1 0  0.6 0.1 0  0.62 0.1 0  0.64 0.1 0  0.66 0.1 0  0.68 0.1 0  0.7 0.1 0  0.72 0.1 0  0.74 0.1 0  0.76 0.1 0  0.78 0.1 0  0.8 0.1 0  0.82 0.1 0  0.84 0.1 0  0.86 0.1 0  0.88 0.1 0  0.9 0.1 0  0.92 0.1 0  0.9399999999999999 0.1 0  0.96 0.1 0  0.98 0.1 0  1 0.1 0  0 0.12 0  0.02 0.12 0  0.04 0.12 0  0.06 0.12 0  0.08 0.12 0  0.1 0.12 0  0.12 0.12 0  0.14 0.12 0  0.16 0.12 0  0.18 0.12 0  0.2 0.12 0  0.22 0.12 0  0.24 0.12 0  0.26 0.12 0  0.28 0.12 0  0.3 0.12 0  0.32 0.12 0  0.34 0.12 0  0.36 0.12 0  0.38 0.12 0  0.4 0.12 0  0.42 0.12 0  0.44 0.12 0  0.46 0.12 0  0.48 0.12 0  0.5 0.12 0  0.52 0.12 0  0.54 0.12 0  0.5600000000000001 0.12 0  0.58 0.12 0  0.6 0.12 0  0.62 0.12 0  0.64 0.12 0  0.66 0.12 0  0.68 0.12 0  0.7 0.12 0  0.72 0.12 0  0.74 0.12 0  0.76 0.12 0  0.78 0.12 0  0.8 0.12 0  0.82 0.12 0  0.84 0.12 0  0.86 0.12 0  0.88 0.12 0  0.9 0.12 0  0.92 0.12 0  0.9399999999999999 0.12 0  0.96 0.12 0  0.98 0.12 0  1 0.12 0  0 0.14 0  0.02 0.14 0  0.04 0.14 0  0.06 0.14 0  0.08 0.14 0  0.1 0.14 0  0.12 0.14 0  0.14 0.14 0  0.16 0.14 0  0.18 0.14 0  0.2 0.14 0  0.22 0.14 0  0.24 0.14 0  0.26 0.14 0  0.28 0.14 0  0.3 0.14 0  0.32 0.14 0  0.34 0.14 0  0.36 0.14 0  0.38 0.14 0  0.4 0.14 0  0.42 0.14 0  0.44 0.14 0  0.46 0.14 0  0.48 0.14 0  0.5 0.14 0  0.52 0.14 0  0.54 0.14 0  0.5600000000000001 0.14 0  0.58 0.14 0  0.6 0.14 0  0.62 0.14 0  0.64 0.14 0  0.66 0.14 0  0.68 0.14 0  0.7 0.14 0  0.72 0.14 0  0.74 0.14 0  0.76 0.14 0  0.78 0.14 0  0.8 0.14 0  0.82 0.14 0  0.84 0.14 0  0.86 0.14 0  0.88 0.14 0  0.9 0.14 0  0.92 0.14 0  0.9399999999999999 0.14 0  0.96 0.14 0  0.98 0.14 0  1 0.14 0  0 0.16 0  0.02 0.16 0  0.04 0.16 0  0.06 0.16 0  0.08 0.16 0  0.1 0.16 0  0.12 0.16 0  0.14 0.16 0  0.16 0.16 0  0.18 0.16 0  0.2 0.16 0  0.22 0.16 0  0.24 0.16 0  0.26 0.16 0  0.28 0.16 0  0.3 0.16 0  0.32 0.16 0  0.34 0.16 0  0.36 0.16 0  0.38 0.16 0  0.4 0.16 0  0.42 0.16 0  0.44 0.16 0  0.46 0.16 0  0.48 0.16 0  0.5 0.16 0  0.52 0.16 0  0.54 0.16 0  0.5600000000000001 0.16 0  0.58 0.16 0  0.6 0.16 0  0.62 0.16 0  0.64 0.16 0  0.66 0.16 0  0.68 0.16 0  0.7 0.16 0  0.72 0.16 0  0.74 0.16 0  0.76 0.16 0  0.78 0.16 0  0.8 0.16 0  0.82 0.16 0  0.84 0.16 0  0.86 0.16 0  0.88 0.16 0  0.9 0.16 0  0.92 0.16 0  0.9399999999999999 0.16 0  0.96 0.16 0  0.98 0.16 0  1 0.16 0  0 0.18 0  0.02 0.18 0  0.04 0.18 0  0.06 0.18 0  0.08 0.18 0  0.1 0.18 0  0.12 0.18 0  0.14 0.18 0  0.16 0.18 0  0.18 0.18 0  0.2 0.18 0  0.22 0.18 0  0.24 0.18 0  0.26 0.18 0  0.28 0.18 0  0.3 0.18 0  0.32 0.18 0  0.34 0.18 0  0.36 0.18 0  0.38 0.18 0  0.4 0.18 0  0.42 0.18 0  0.44 0.18 0  0.46 0.18 0  0.48 0.18 0  0.5 0.18 0  0.52 0.18 0  0.54 0.18 0  0.5600000000000001 0.18 0  0.58 0.18 0  0.6 0.18 0  0.62 0.18 0  0.64 0.18 0  0.66 0.18 0  0.68 0.18 0  0.7 0.18 0  0.72 0.18 0  0.74 0.18 0  0.76 0.18 0  0.78 0.18 0  0.8 0.18 0  0.82 0.18 0  0.84 0.18 0  0.86 0.18 0  0.88 0.18 0  0.9 0.18 0  0.92 0.18 0  0.9399999999999999 0.18 0  0.96 0.18 0  0.98 0.18 0  1 0.18 0  0 0.2 0  0.02 0.2 0  0.04 0.2 0  0.06 0.2 0  0.08 0.2 0  0.1 0.2 0  0.12 0.2 0  0.14 0.2 0  0.16 0.2 0  0.18 0.2 0  0.2 0.2 0  0.22 0.2 0  0.24 0.2 0  0.26 0.2 0  0.28 0.2 0  0.3 0.2 0  0.32 0.2 0  0.34 0.2 0  0.36 0.2 0  0.38 0.2 0  0.4 0.2 0  0.42 0.2 0  0.44 0.2 0  0.46 0.2 0  0.48 0.2 0  0.5 0.2 0  0.52 0.2 0  0.54 0.2 0  0.5600000000000001 0.2 0  0.58 0.2 0  0.6 0.2 0  0.62 0.2 0  0.64 0.2 0  0.66 0.2 0  0.68 0.2 0  0.7 0.2 0  0.72 0.2 0  0.74 0.2 0  0.76 0.2 0  0.78 0.2 0  0.8 0.2 0  0.82 0.2 0  0.84 0.2 0  0.86 0.2 0  0.88 0.2 0  0.9 0.2 0  0.92 0.2 0  0.9399999999999999 0.2 0  0.96 0.2 0  0.98 0.2 0  1 0.2 0  0 0.22 0  0.02 0.22 0  0.04 0.22 0  0.06 0.22 0  0.08 0.22 0  0.1 0.22 0  0.12 0.22 0  0.14 0.22 0  0.16 0.22 0  0.18 0.22 0  0.2 0.22 0  0.22 0.22 0  0.24 0.22 0  0.26 0.22 0  0.28 0.22 0  0.3 0.22 0  0.32 0.22 0  0.34 0.22 0  0.36 0.22 0  0.38 0.22 0  0.4 0.22 0  0.42 0.22 0  0.44 0.22 0  0.46 0.22 0  0.48 0.22 0  0.5 0.22 0  0.52 0.22 0  0.54 0.22 0  0.5600000000000001 0.22 0  0.58 0.22 0  0.6 0.22 0  0.62 0.22 0  0.64 0.22 0  0.66 0.22 0  0.68 0.22 0  0.7 0.22 0  0.72 0.22 0  0.74 0.22 0  0.76 0.22 0  0.78 0.22 0  0.8 0.22 0  0.82 0.22 0  0.84 0.22 0  0.86 0.22 0  0.88 0.22 0  0.9 0.22 0  0.92 0.22 0  0.9399999999999999 0.22 0  0.96 0.22 0  0.98 0.22 0  1 0.22 0  0 0.24 0  0.02 0.24 0  0.04 0.24 0  0.06 0.24 0  0.08 0.24 0  0.1 0.24 0  0.12 0.24 0  0.14 0.24 0  0.16 0.24 0  0.18 0.24 0  0.2 0.24 0  0.22 0.24 0  0.24 0.24 0  0.26 0.24 0  0.28 0.24 0  0.3 0.24 0  0.32 0.24 0  0.34 0.24 0  0.36 0.24 0  0.38 0.24 0  0.4 0.24 0  0.42 0.24 0  0.44 0.24 0  0.46 0.24 0  0.48 0.24 0  0.5 0.24 0  0.52 0.24 0  0.54 0.24 0  0.5600000000000001 0.24 0  0.58 0.24 0  0.6 0.24 0  0.62 0.24 0  0.64 0.24 0  0.66 0.24 0  0.68 0.24 0  0.7 0.24 0  0.72 0.24 0  0.74 0.24 0  0.76 0.24 0  0.78 0.24 0  0.8 0.24 0  0.82 0.24 0  0.84 0.24 0  0.86 0.24 0  0.88 0.24 0  0.9 0.24 0  0.92 0.24 0  0.9399999999999999 0.24 0  0.96 0.24 0  0.98 0.24 0  1 0.24 0  0 0.26 0  0.02 0.26 0  0.04 0.26 0  0.06 0.26 0  0.08 0.26 0  0.1 0.26 0  0.12 0.26 0  0.14 0.26 0  0.16 0.26 0  0.18 0.26 0  0.2 0.26 0  0.22 0.26 0  0.24 0.26 0  0.26 0.26 0  0.28 0.26 0  0.3 0.26 0  0.32 0.26 0  0.34 0.26 0  0.36 0.26 0  0.38 0.26 0  0.4 0.26 0  0.42 0.26 0  0.44 0.26 0  0.46 0.26 0  0.48 0.26 0  0.5 0.26 0  0.52 0.26 0  0.54 0.26 0  0.5600000000000001 0.26 0  0.58 0.26 0  0.6 0.26 0  0.62 0.26 0  0.64 0.26 0  0.66 0.26 0  0.68 0.26 0  0.7 0.26 0  0.72 0.26 0  0.74 0.26 0  0.76 0.26 0  0.78 0.26 0  0.8 0.26 0  0.82 0.26 0  0.84 0.26 0  0.86 0.26 0  0.88 0.26 0  0.9 0.26 0  0.92 0.26 0  0.9399999999999999 0.26 0  0.96 0.26 0  0.98 0.26 0  1 0.26 0  0 0.28 0  0.02 0.28 0  0.04 0.28 0  0.06 0.28 0  0.08 0.28 0  0.1 0.28 0  0.12 0.28 0  0.14 0.28 0  0.16 0.28 0  0.18 0.28 0  0.2 0.28 0  0.22 0.28 0  0.24 0.28 0  0.26 0.28 0  0.28 0.28 0  0.3 0.28 0  0.32 0.28 0  0.34 0.28 0  0.36 0.28 0  0.38 0.28 0  0.4 0.28 0  0.42 0.28 0  0.44 0.28 0  0.46 0.28 0  0.48 0.28 0  0.5 0.28 0  0.52 0.28 0  0.54 0.28 0  0.5600000000000001 0.28 0  0.58 0.28 0  0.6 0.28 0  0.62 0.28 0  0.64 0.28 0  0.66 0.28 0  0.68 0.28 0  0.7 0.28 0  0.72 0.28 0  0.74 0.28 0  0.76 0.28 0  0.78 0.28 0  0.8 0.28 0  0.82 0.28 0  0.84 0.28 0  0.86 0.28
[...]
<PointData  Scalars="f_17"> 
<DataArray  type="Float64"  Name="f_17"  format="ascii">1.0000000000000000e+00  9.8909027053040355e-01  9.7817369680798838e-01  9.6724293846799070e-01  9.5629015355727254e-01  9.4530695774859952e-01  9.3428438864299479e-01  9.2321287068210189e-01  9.1208217939788516e-01  9.0088140445376019e-01  8.8959891109885547e-01  8.7822229968379473e-01  8.6673836286955408e-01  8.5513304012480085e-01  8.4339136905746626e-01  8.3149743306356816e-01  8.1943430469887202e-01  8.0718398408391701e-01  7.9472733153640596e-01  7.8204399348159503e-01  7.6911232051439227e-01  7.5590927626740989e-01  7.4241033546552582e-01  7.2858936920406159e-01  7.1441851505377629e-01  6.9986802904361767e-01  6.8490611586352812e-01  6.6949873271229554e-01  6.5360936101651423e-01  6.3719873866324694e-01  6.2022454327350118e-01  6.0264101418178695e-01  5.8439849686171486e-01  5.6544288807135168e-01  5.4571495225092670e-01  5.2514946853605715e-01  5.0367415129336723e-01  4.8120826226268709e-01  4.5766079393418951e-01  4.3292804236044102e-01  4.0689028593088955e-01  3.7940711115997194e-01  3.5031060806471953e-01  3.1939504286312759e-01  2.8640033307471696e-01  2.5098369912683532e-01  2.1266620626989791e-01  1.7071806719335281e-01  1.2386804897871133e-01  6.9415689117392113e-02  0.0000000000000000e+00  1.0000000000000000e+00  9.8909386484171513e-01  9.7818087971140399e-01  9.6725373714199114e-01  9.5630461592512173e-01  9.4532515004983708e-01  9.3430639524404535e-01  9.2323879452314639e-01  9.1211214271251528e-01  9.0091554967751442e-01  8.8963740195320529e-01  8.7826532244391242e-01  8.6678612783384568e-01  8.5518578331094530e-01  8.4344935415623556e-01  8.3156095368907124e-01  8.1950368698263787e-01  8.0725958967101485e-01  7.9480956105518807e-01  7.8213329057543413e-01  7.6920917654505938e-01  7.5601423582685034e-01  7.4252400286766451e-01  7.2871241617350635e-01  7.1455168988746076e-01  7.0001216759961293e-01  6.8506215483559330e-01  6.6966772578954148e-01  6.5379249871983036e-01  6.3739737291614107e-01  6.2044021813819583e-01  6.0287550472313367e-01  5.8465385887197008e-01  5.6572152252628705e-01  5.4601969008190676e-01  5.2548368394614953e-01  5.0404191602874604e-01  4.8161456006716613e-01  4.5811182590099386e-01  4.3343167401736665e-01  4.0745672379693731e-01  3.8004996801102625e-01  3.5104866433048953e-01  3.2025534548016976e-01  2.8742410728435680e-01  2.5223890336799049e-01  2.1427815187222898e-01  1.7295736624791078e-01  1.2744920983909386e-01  7.6668872188520851e-02  1.9998666693333080e-02  1.0000000000000000e+00  9.8910463092172107e-01  9.7820245333358735e-01  9.6728621199261056e-01  9.5634813816133513e-01  9.4537991849956837e-01  9.3437266244067352e-01  9.2331686840960447e-01  9.1220238888419103e-01  9.0101839412134332e-01  8.8975333429138881e-01  8.7839489971934981e-01  8.6692997889413981e-01  8.5534461386541494e-01  8.4362395259895195e-01  8.3175219780239484e-01  8.1971255166153756e-01  8.0748715584015140e-01  7.9505702599007999e-01  7.8240197988839311e-01  7.6950055815895102e-01  7.5632993633920220e-01  7.4286582680967295e-01  7.2908236880057553e-01  7.1495200431041528e-01  7.0044533729310177e-01  6.8553097286294040e-01  6.7017533249068395e-01  6.5434244016358201e-01  6.3799367318252831e-01  6.2108746956487504e-01  6.0357898176481328e-01  5.8541966340501139e-01  5.6655677163318119e-01  5.4693276214025244e-01  5.2648454616655160e-01  5.0514256804206237e-01  4.8282964657488509e-01  4.5945950189532558e-01  4.3493485829958572e-01  4.0914496941070022e-01  3.8196235061820977e-01  3.5323842507826436e-01  3.2279771207237673e-01  2.9043019922649771e-01  2.5588197494168957e-01  2.1884618783935819e-01  1.7896360601247216e-01  1.3586542129988527e-01  8.9357886244416596e-02  3.9989334186634161e-02  1.0000000000000000e+00  9.8912252722139815e-01  9.7823832408535039e-01  9.6734021741168652e-01  9.5642052270573219e-01  9.4547101281661750e-01  9.3448288579114036e-01  9.2344673175953595e-01  9.1235249871353896e-01  9.0118945698506581e-01  8.8994616218568579e-01  8.7861041632777170e-01  8.6716922681151043e-01  8.5560876292268218e-01  8.4391430944084134e-01  8.3207021690382921e-01  8.2005984801011600e-01  8.0786551956274566e-01  7.9546843926463728e-01  7.8284863656090176e-01  7.6998488658495601e-01  7.5685462609559773e-01  7.4343386008417200e-01  7.2969705747485536e-01  7.1561703402428323e-01  7.0116482013315140e-01  6.8630951079097546e-01  6.7101809425861059e-01  6.5525525531568418e-01  6.3898314791521693e-01  6.2216113083442892e-01  6.0474545831007187e-01  5.8668891559703595e-01  5.6794038676341374e-01  5.4844433868192133e-01  5.2814020093387681e-01  5.0696161607951418e-01  4.8483552849678635e-01  4.6168107324568963e-01  4.3740822088689291e-01  4.1191613459034232e-01  3.8509121422978593e-01  3.5680486806976164e-01  3.2691123782069209e-01  2.9524557867385848e-01  2.6162516265199037e-01  2.2585731798604924e-01  1.8776527160046763e-01  1.4725411541160838e-01  1.0445415348266793e-01  5.9964006479444588e-02  1.0000000000000000e+00  9.8914747545940496e-01  9.7828833192767750e-01  9.6741550986844538e-01  9.5652144103361714e-01  9.4559801750091110e-01  9.3463656016889463e-01  9.2362778644991772e-01  9.1256177695626894e-01  9.0142794097066437e-01  8.9021498046927761e-01  8.7891085243771505e-01  8.6750272918992088e-01  8.5597695636604676e-01  8.4431900824611816e-01  8.3251343997027050e-01  8.2054383620164317e-01  8.0839275570278979e-01  7.9604167121844283e-01  7.8347090396394192e-01  7.7065955190631663e-01  7.5758541088987374e-01  7.4422488749524429e-01  7.3055290232413528e-01  7.1654278216421052e-01  7.0216613920067417e-01  6.8739273509270982e-01  6.7219032731163109e-01  6.5652449462959339e-01  6.4035843803866166e-01  6.2365275265709297e-01  6.0636516533650242e-01  5.8845023172973399e-01  5.6985898555982484e-01  5.5053853186362123e-01  5.3043157533474461e-01  5.0947587511663517e-01  4.8760361962931492e-01  4.6474072151967000e-01  4.4080604811369861e-01  4.1571063577103295e-01  3.8935700502182874e-01  3.6163883215890197e-01  3.3244150937116995e-01  3.0164466425245118e-01  2.6912872135497762e-01  2.3478935440906726e-01  1.9856629133139853e-01  1.6049518549873110e-01  1.2078729665068595e-01  7.9914693969172695e-02  1.0000000000000000e+00  9.8917936409894569e-01  9.7835225210685406e-01  9.6751174941319384e-01  9.5665043563904106e-01  9.4576035448645346e-01  9.3483298313430241e-01  9.2385920094284291e-01  9.1282925725651765e-01  9.0173273809752730e-01  8.9055853153134801e-01  8.7929479146667688e-01  8.6792889962918629e-01  8.5644742542144925e-01  8.4483608334994498e-01  8.3307968766338347e-01  8.2116210380356869e-01  8.0906619621953935e-01  7.9677377203641009e-01  7.8426552000066763e-01  7.7152094404194027e-01  7.5851829069554577e-01  7.4523446951837669e-01  7.3164496550074631e-01  7.1772374232681080e-01  7.0344313516466517e-01  6.8877373147412690e-01  6.7368423810799882e-01  6.5814133275843356e-01  6.4210949757957736e-01  6.2555083263148714e-01  6.0842484669495056e-01  5.9068822310371749e-01  5.7229455870912349e-01  5.5319407524634867e-01  5.3333330476063068e-01  5.1265475533422566e-01  4.9109657180599969e-01  4.6859222142373685e-01  4.4507026152406448e-01  4.2045429424701669e-01  3.9466329703648478e-01  3.6761266204539939e-01  3.3921652050728707e-01  3.0939231904328229e-01  2.7806919079080000e-01  2.4520235833735132e-01  2.1079618776884160e-01  1.7493722154904587e-01  1.3783248061713305e-01  9.9833416646828155e-02  1.0000000000000000e+00  9.8921805002886354e-01  9.7842979713524114e-01  9.6762850203987605e-01  9.5680692304119708e-01  9.4595728695759440e-01  9.3507125966175586e-01  9.2413991600721268e-01  9.1315370895490677e-01  9.0210243770817322e-01  8.9097521465757379e-01  8.7976043092458756e-01  8.6844572027684597e-01  8.5701792116799247e-01  8.4546303663244005e-01  8.3376619173901234e-01  8.2191158827732436e-01  8.0988245631634137e-01  7.9766100223547554e-01  7.8522835278448255e-01  7.7256449467918964e-01  7.5964820918585807e-01  7.4645700108850199e-01  7.3296702137226666e-01  7.1915298289516394e-01  7.0498806826537119e-01  6.9044382910108693e-01  6.7549007583962928e-01  6.6009475730645761e-01  6.4422382939239498e-01  6.2784111248138541e-01  6.1090813782211340e-01  5.9338398400511527e-01  5.7522510634913937e-01  5.5638516472689203e-01  5.3681485982870003e-01  5.1646179512635060e-01  4.9527039354009739e-01  4.7318191669263915e-01  4.5013466480406455e-01  4.2606448300945826e-01  4.0090577409816602e-01  3.7459332966435971e-01  3.4706545174148440e-01  3.1826904301506193e-01  2.8816755053675480e-01  2.5675270005668632e-01  2.2406047138879817e-01  1.9019000250300783e-01  1.5532013186766511e-01  1.1971220728891938e-01  1.0000000000000000e+00  9.8926335983029068e-01  9.7852061893553921e-01  9.6776524264543706e-01  9.5699019764793725e-01  9.4618792422762688e-01  9.3535030813842879e-01  9.2446865194414174e-01  9.1353364566005091e-01  9.0253533652739137e-01  8.9146309774780985e-01  8.8030559599728342e-01  8.6905075752873384e-01  8.5768573266037329e-01  8.4619685843286108e-01  8.3456961920288042e-01  8.2278860492388228e-01  8.1083746684682767e-01  7.9869887035521681e-01  7.8635444463032267e-01  7.7378472882565708e-01  7.6096911441625681e-01  7.4788578338155054e-01  7.3451164188504736e-01  7.2082224913706150e-01  7.0679174117892773e-01  6.9239274942478535e-01  6.7759631396418896e-01  6.6237179190169904e-01  6.4668676144235926e-01  6.3050692310582135e-01  6.1379600048879579e-01  5.9651564457880013e-01  5.7862534802745325e-01  5.6008237943235362e-01  5.4084175317093963e-01  5.2085625859307982e-01  5.0007658474637173e-01  4.7845159517235186e-01  4.5592883422915986e-01  4.3245538500744024e-01  4.0797925231290810e-01  3.8245151348370887e-01  3.5582955918716513e-01  3.2808181260925739e-01  2.9919430863079727e-01  2.6917930913712768e-01  2.3808551200039288e-01  2.0600811685444032e-01  1.7309497942901064e-01  1.3954311464423649e-01  1.0000000000000000e+00  9.8931509101787407e-01  9.7862431121101012e-01  9.6792135849692662e-01  9.5719943636548055e-01  9.4645122757467126e-01  9.3566886752820833e-01  9.2484391719665848e-01  9.1396733544199993e-01  9.0302945060391326e-01  8.9201993120377054e-01  8.8092775561869507e-01  8.6974118057352268e-01  8.5844770829337280e-01  8.4703405215425653e-01  8.3548610066430573e-01  8.2378887960436009e-01  8.1192651215473621e-01  7.9988217683621710e-01  7.8763806309938167e-01  7.7517532440981629e-01  7.6247402870099523e-01  7.4951310610670996e-01  7.3627029394792176e-01  7.2272207904492869e-01  7.0884363756914137e-01  6.9460877286008604e-01  6.7998985194175632e-01  6.6495774192006563e-01  6.4948174808984838e-01  6.3352955651153642e-01  6.1706718515715309e-01  6.0005894964797957e-01  5.8246745236108799e-01  5.6425360761915122e-01  5.4537672128277503e-01  5.2579465099273459e-01  5.0546408441006563e-01  4.8434098809353165e-01  4.6238130017762730e-01  4.3954196640763027e-01  4.1578245059146191e-01  3.9106688293326791e-01  3.6536703157300487e-01  3.3866626915243148e-01  3.1096461130024572e-01  2.8228465537373726e-01  2.5267775993142216e-01  2.2222904041745192e-01  1.9105887527974519e-01  1.5931820661424598e-01  1.0000000000000000e+00  9.8937301336778294e-01  9.7874041207377904e-01  9.6809615316062236e-01  9.5743370387075211e-01  9.4674601693297500e-01  9.3602550558310804e-01  9.2526401820575721e-01  9.1445281248315902e-01  9.0358252893686941e-01  8.9264316374823915e-01  8.8162404074396405e-01  8.7051378243370303e-01  8.5930027998825986e-01  8.4797066204973748e-01  8.3651126227016459e-01  8.2490758548342069e-01  8.1314427242813159e-01  8.0120506295846883e-01  7.8907275770783014e-01  7.7672917821061793e-01  7.6415512554428633e-01  7.5133033763372181e-01  7.3823344547146363e-01  7.2484192866192820e-01  7.1113207091188235e-01  6.9707891638510033e-01  6.8265622824710692e-01  6.6783645128825775e-01  6.5259068128819109e-01  6.3688864485128793e-01  6.2069869490956597e-01  6.0398782910259807e-01  5.8672174099825525e-01  5.6886491786640581e-01  5.5038080377737353e-01  5.3123205354076830e-01  5.1138091181556378e-01  4.9078976290023918e-01  4.6942191020404112e-01  4.4724265933570667e-01  4.2422079255385259e-01  4.0033052928651425e-01  3.7555405658706409e-01  3.4988466617775577e-01  3.2333042390012873e-01  2.9591809140771175e-01  2.6769670064168832e-01  2.3873978519618891e-01  2.0914495412112277e-01  1.7902957342582418e-01  1.0000000000000000e+00  9.8943687036021410e-01  9.7886840693067567e-01  9.6828885085078031e-01  9.5769195847061428e-01  9.4707097833849518e-01  9.3641862797765774e-01  9.2572707036258584e-01  9.1498789000606784e-01  9.0419206856985623e-01  8.9332995991469932e-01  8.8239126450957672e-01  8.7136500312549325e-01  8.6023948974671272e-01  8.4900230364262319e-01  8.3764026055745155e-01  8.2613938299416823e-01  8.1448486959474853e-01  8.0266106365377454e-01  7.9065142084906170e-01  7.7843847633548036e-01  7.6600381143154517e-01  7.5332802023954160e-01  7.4039067668805492e-01  7.2717030268294935e-01  7.1364433831535468e-01  6.9978911542467892e-01  6.8557983627988783e-01  6.7099055976143740e-01  6.5599419824959482e-01  6.4056252951816206e-01  6.2466622938039951e-01  6.0827493274296307e-01  5.9135733322410378e-01  5.7388133473469083e-01  5.5581427256223481e-01  5.3712322667034718e-01  5.1777545616472509e-01  4.9773899098950969e-01  4.7698342424989842e-01  4.5548095460464144e-01  4.3320773000162244e-01  4.1014553651016000e-01  3.8628385103590107e-01  3.6162222301645958e-01  3.3617285499530958e-01  3.0996310671840815e-01  2.8303746049964346e-01  2.5545830271238351e-01  2.2730480000685607e-01  1.9866933079506122e-01  1.0000000000000000e+00  9.8950638073557395e-01  9.7900773160704690e-01  9.6849860115044173e-01  9.5797305847214165e-01  9.4742467202634006e-01  9.3684648823729710e-01  9.2623100989902252e-01  9.1557017428735943e-01  9.0485533092337889e-01  8.9407721893250791e-01  8.8322594395129383e-01  8.7229095454351191e-01  8.6126101810013400e-01  8.5012419621435653e-01  8.3886781954459455e-01  8.2747846220653787e-01  8.1594191577196895e-01  8.0424316299948395e-01  7.9236635148372303e-01  7.8029476748931215e-01  7.6801081033871388e-01  7.5549596785653339e-01  7.4273079354544358e-01  7.2969488639232094e-01  7.1636687449250991e-01  7.0272440405455883e-01  6.8874413583209293e-01  6.7440175165512029e-01  6.5967197453930471e-01  6.4452860688707314e-01  6.2894459261650359e-01  6.1289211072861238e-01  5.9634270991986549e-01  5.7926749642558861e-01  5.6163739037220628e-01  5.4342346948115972e-01  5.2459742282171440e-01  5.0513214101226123e-01  4.8500247194510571e-01  4.6418617120384775e-01  4.4266507132468458e-01  4.2042648014963174e-01  3.9746479069613727e-01  3.7378323760107635e-01  3.4939566416729417e-01  3.2432807111158024e-01  2.9861961795600755e-01  2.7232267603927379e-01  2.4550154660004089e-01  2.1822962308086932e-01  1.0000000000000000e+00  9.8958124015287341e-01  9.7915777567918472e-01  9.6872448405184430e-01  9.5827576898624733e-01  9.4780554107627923e-01  9.3730719832958453e-01  9.2677360655547092e-01  9.1619707956285112e-01  9.0556935913147474e-01  8.9488159472763618e-01  8.8412432294596899e-01  8.7328744667239289e-01  8.6236021398048457e-01  8.5133119679547875e-01  8.4018826938796598e-01  8.2891858679477293e-01  8.1750856330938093e-01  8.0594385124117784e-01  7.9420932021495150e-01  7.8228903737341504e-01  7.7016624896127461e-01  7.5782336391589933e-01  7.4524194027518154e-01  7.3240267544791227e-01  7.1928540168878563e-01  7.0586908849481722e-01  6.9213185411199685e-01  6.7805098893370286e-01  6.6360299431319347e-01  6.4876364123208496e-01  6.3350805439736713e-01  6.1781082871081783e-01  6.0164618668558534e-01  5.8498818726933033e-01  5.6781099861692330e-01  5.5008924949657301e-01  5.3179847592461116e-01  5.1291568079138317e-01  4.9342002381357875e-01  4.7329365581948624e-01  4.5252270328219307e-01  4.3109839376330306e-01  4.0901828787316719e-01  3.8628754642884272e-01  3.6292011286803499e-01  3.3893963570000202e-01  3.1437990693951745e-01  2.8928457317927098e-01  2.6370591638367868e-01  2.3770262642713458e-01  1.0000000000000000e+00  9.8966112293471409e-01  9.7931788598142688e-01  9.6896551526120944e-01  9.5859876908601072e-01  9.4821192050256475e-01  9.3779873978735129e-01  9.2735247686520494e-01  9.1686584362957946e-01  9.0633099614999191e-01  8.9573951676208319e-01  8.8508239604860550e-01  8.7435001473598750e-01  8.6353212555180348e-01  8.5261783511437594e-01  8.4159558595827155e-01  8.3045313884001115e-01  8.1917755551901617e-01  8.0775518227201948e-01  7.9617163447790484e-01  7.8441178270800405e-01  7.7245974087884606e-01  7.6029885717596035e-01  7.4791170864552736e-01  7.3528010058389426e-01  7.2238507214336023e-01  7.0920690992813462e-01  6.9572517179072257e-01  6.8191872357145134e-01  6.6776579216842036e-01  6.5324403909676854e-01  6.3833065960576207e-01  6.2300251347119229e-01  6.0723629475210883e-01  5.9100874904598466e-01  5.7429694799312936e-01  5.5707863178476735e-01  5.3933263091215089e-01  5.2103937787635335e-01  5.0218151735614547e-01  4.8274461844043631e-01  4.6271798376499412e-01  4.4209553643470351e-01  4.2087674538710318e-01  3.9906752319982003e-01  3.7668099908456582e-01  3.5373803908837892e-01  3.3026736490820197e-01  3.0630512593462134e-01  2.8189382072623792e-01  2.5708055189215512e-01  1.0000000000000000e+00  9.8974568388174178e-01  9.7948737025236277e-01  9.6922065171207161e-01  9.5894065924178673e-01  9.4864204668622143e-01  9.3831897523599062e-01  9.2796509789880233e-01  9.1757354395627067e-01  9.0713690341168385e-01  8.9664721144552406e-01  8.8609593291022115e-01  8.7547394691410363e-01  8.6477153156760700e-01  8.5397834899349745e-01  8.4308343073838721e-01  8.3207516376666180e-01  8.2094127727196897e-01  8.0966883060787642e-01  7.9824420272093455e-01  7.8665308356946739e-01  7.7488046813395894e-01  7.6291065377457867e-01  7.5072724187381679e-01  7.3831314492377076e-01  7.2565060048567953e-01  7.1272119377186238e-01  6.9950589098563520e-01  6.8598508601103103e-01  6.7213866357747876e-01  6.5794608263736876e-01  6.4338648438155177e-01  6.2843883006136292e-01  6.1308207454688801e-01  5.9729538225867751e-01  5.8105839264459247e-01  5.6435154254747411e-01  5.4715645234374422e-01  5.2945638123438532e-01  5.1123675401636925e-01  4.9248575641693437e-01  4.7319498794676562e-01  4.5336014963910254e-01  4.3298172880787744e-01  4.1206562475572900e-01  3.9062364032100250e-01  3.6867374841674061e-01  3.4624003660342156e-01  3.2335224389581690e-01  3.0004483893355932e-01  2.7635564856411376e-01  1.0000000000000000e+00  9.8983456013926829e-01  9.7966550088479754e-01  9.6948879723250292e-01  9.5929996895770142e-01  9.4909406705204136e-01  9.3886566020276119e-01  9.2860882131982925e-01  9.1831711412371564e-01  9.0798357981626254e-01  8.9760072386960221e-01  8.8716050298396820e-01  8.7665431228505208e-01  8.6607297285612694e-01  8.5540671973036808e-01  8.4464519050586240e-01  8.3377741479102740e-01  8.2279180474329094e-01  8.1167614703085611e-01  8.0041759662857848e-01  7.8900267295714599e-01  7.7741725899312952e-01  7.6564660411968422e-01  7.5367533165786671e-01  7.4148745222116519e-01  7.2906638427553039e-01  7.1639498356844378e-01  7.0345558341710335e-01  6.9023004821955991e-01  6.7669984297240926e-01  6.6284612203765003e-01  6.4864984088386968e-01  6.3409189500386642e-01  6.1915329063277635e-01  6.0381535217999582e-01  5.8805997132796117e-01  5.7186990237431190e-01  5.5522910737339193e-01  5.3812315267502464e-01  5.2053965521162782e-01  5.0246877197263984e-01  4.8390371920135028e-01  4.6484129881182046e-01  4.4528239860469343e-01  4.2523242098045200e-01  4.0470158388005106e-01  3.8370503061340516e-01  3.6226268598328454e-01  3.4039880871895217e-01  3.1814121728736461e-01  2.9552020666133955e-01  1.0000000000000000e+00  9.8992737309934564e-01  9.7985151874554288e-01  9.6976880831424606e-01  9.5967516453833568e-01  9.4956604989847926e-01  9.3943645509407880e-01  9.2928088761350103e-01  9.1909336043011935e-01  9.0886738086090957e-01  8.9859593963736484e-01  8.8827150025497392e-01  8.7788598868787837e-01  8.6743078358041015e