<?xml version="1.0"?>
<VTKFile type="UnstructuredGrid"  version="0.1"  >
<UnstructuredGrid>
<Piece  NumberOfPoints="2601" NumberOfCells="5000">
<Points>
<DataArray  type="Float64"  NumberOfComponents="3"  format="ascii">0 0 0  0.02 0 0  0.04 0 0  0.06 0 0  0.08 0 0  0.1 0 0  0.12 0 0  0.14 0 0  0.16 0 0  0.18 0 0  0.2 0 0  0.22 0 0  0.24 0 0  0.26 0 0  0.28 0 0  0.3 0 0  0.32 0 0  0.34 0 0  0.36 0 0  0.38 0 0  0.4 0 0  0.42 0 0  0.44 0 0  0.46 0 0  0.48 0 0  0.5 0 0  0.52 0 0  0.54 0 0  0.5600000000000001 0 0  0.58 0 0  0.6 0 0  0.62 0 0  0.64 0 0  0.66 0 0  0.68 0 0  0.7 0 0  0.72 0 0  0.74 0 0  0.76 0 0  0.78 0 0  0.8 0 0  0.82 0 0  0.84 0 0  0.86 0 0  0.88 0 0  0.9 0 0  0.92 0 0  0.9399999999999999 0 0  0.96 0 0  0.98 0 0  1 0 0  0 0.02 0  0.02 0.02 0  0.04 0.02 0  0.06 0.02 0  0.08 0.02 0  0.1 0.02 0  0.12 0.02 0  0.14 0.02 0  0.16 0.02 0  0.18 0.02 0  0.2 0.02 0  0.22 0.02 0  0.24 0.02 0  0.26 0.02 0  0.28 0.02 0  0.3 0.02 0  0.32 0.02 0  0.34 0.02 0  0.36 0.02 0  0.38 0.02 0  0.4 0.02 0  0.42 0.02 0  0.44 0.02 0  0.46 0.02 0  0.48 0.02 0  0.5 0.02 0  0.52 0.02 0  0.54 0.02 0  0.5600000000000001 0.02 0  0.58 0.02 0  0.6 0.02 0  0.62 0.02 0  0.64 0.02 0  0.66 0.02 0  0.68 0.02 0  0.7 0.02 0  0.72 0.02 0  0.74 0.02 0  0.76 0.02 0  0.78 0.02 0  0.8 0.02 0  0.82 0.02 0  0.84 0.02 0  0.86 0.02 0  0.88 0.02 0  0.9 0.02 0  0.92 0.02 0  0.9399999999999999 0.02 0  0.96 0.02 0  0.98 0.02 0  1 0.02 0  0 0.04 0  0.02 0.04 0  0.04 0.04 0  0.06 0.04 0  0.08 0.04 0  0.1 0.04 0  0.12 0.04 0  0.14 0.04 0  0.16 0.04 0  0.18 0.04 0  0.2 0.04 0  0.22 0.04 0  0.24 0.04 0  0.26 0.04 0  0.28 0.04 0  0.3 0.04 0  0.32 0.04 0  0.34 0.04 0  0.36 0.04 0  0.38 0.04 0  0.4 0.04 0  0.42 0.04 0  0.44 0.04 0  0.46 0.04 0  0.48 0.04 0  0.5 0.04 0  0.52 0.04 0  0.54 0.04 0  0.5600000000000001 0.04 0  0.58 0.04 0  0.6 0.04 0  0.62 0.04 0  0.64 0.04 0  0.66 0.04 0  0.68 0.04 0  0.7 0.04 0  0.72 0.04 0  0.74 0.04 0  0.76 0.04 0  0.78 0.04 0  0.8 0.04 0  0.82 0.04 0  0.84 0.04 0  0.86 0.04 0  0.88 0.04 0  0.9 0.04 0  0.92 0.04 0  0.9399999999999999 0.04 0  0.96 0.04 0  0.98 0.04 0  1 0.04 0  0 0.06 0  0.02 0.06 0  0.04 0.06 0  0.06 0.06 0  0.08 0.06 0  0.1 0.06 0  0.12 0.06 0  0.14 0.06 0  0.16 0.06 0  0.18 0.06 0  0.2 0.06 0  0.22 0.06 0  0.24 0.06 0  0.26 0.06 0  0.28 0.06 0  0.3 0.06 0  0.32 0.06 0  0.34 0.06 0  0.36 0.06 0  0.38 0.06 0  0.4 0.06 0  0.42 0.06 0  0.44 0.06 0  0.46 0.06 0  0.48 0.06 0  0.5 0.06 0  0.52 0.06 0  0.54 0.06 0  0.5600000000000001 0.06 0  0.58 0.06 0  0.6 0.06 0  0.62 0.06 0  0.64 0.06 0  0.66 0.06 0  0.68 0.06 0  0.7 0.06 0  0.72 0.06 0  0.74 0.06 0  0.76 0.06 0  0.78 0.06 0  0.8 0.06 0  0.82 0.06 0  0.84 0.06 0  0.86 0.06 0  0.88 0.06 0  0.9 0.06 0  0.92 0.06 0  0.9399999999999999 0.06 0  0.96 0.06 0  0.98 0.06 0  1 0.06 0  0 0.08 0  0.02 0.08 0  0.04 0.08 0  0.06 0.08 0  0.08 0.08 0  0.1 0.08 0  0.12 0.08 0  0.14 0.08 0  0.16 0.08 0  0.18 0.08 0  0.2 0.08 0  0.22 0.08 0  0.24 0.08 0  0.26 0.08 0  0.28 0.08 0  0.3 0.08 0  0.32 0.08 0  0.34 0.08 0  0.36 0.08 0  0.38 0.08 0  0.4 0.08 0  0.42 0.08 0  0.44 0.08 0  0.46 0.08 0  0.48 0.08 0  0.5 0.08 0  0.52 0.08 0  0.54 0.08 0  0.5600000000000001 0.08 0  0.58 0.08 0  0.6 0.08 0  0.62 0.08 0  0.64 0.08 0  0.66 0.08 0  0.68 0.08 0  0.7 0.08 0  0.72 0.08 0  0.74 0.08 0  0.76 0.08 0  0.78 0.08 0  0.8 0.08 0  0.82 0.08 0  0.84 0.08 0  0.86 0.08 0  0.88 0.08 0  0.9 0.08 0  0.92 0.08 0  0.9399999999999999 0.08 0  0.96 0.08 0  0.98 0.08 0  1 0.08 0  0 0.1 0  0.02 0.1 0  0.04 0.1 0  0.06 0.1 0  0.08 0.1 0  0.1 0.1 0  0.12 0.1 0  0.14 0.1 0  0.16 0.1 0  0.18 0.1 0  0.2 0.1 0  0.22 0.1 0  0.24 0.1 0  0.26 0.1 0  0.28 0.1 0  0.3 0.1 0  0.32 0.1 0  0.34 0.1 0  0.36 0.1 0  0.38 0.1 0  0.4 0.1 0  0.42 0.1 0  0.44 0.1 0  0.46 0.1 0  0.48 0.1 0  0.5 0.1 0  0.52 0.1 0  0.54 0.1 0  0.5600000000000001 0.1 0  0.58 0.1 0  0.6 0.1 0  0.62 0.1 0  0.64 0.1 0  0.66 0.1 0  0.68 0.1 0  0.7 0.1 0  0.72 0.1 0  0.74 0.1 0  0.76 0.1 0  0.78 0.1 0  0.8 0.1 0  0.82 0.1 0  0.84 0.1 0  0.86 0.1 0  0.88 0.1 0  0.9 0.1 0  0.92 0.1 0  0.9399999999999999 0.1 0  0.96 0.1 0  0.98 0.1 0  1 0.1 0  0 0.12 0  0.02 0.12 0  0.04 0.12 0  0.06 0.12 0  0.08 0.12 0  0.1 0.12 0  0.12 0.12 0  0.14 0.12 0  0.16 0.12 0  0.18 0.12 0  0.2 0.12 0  0.22 0.12 0  0.24 0.12 0  0.26 0.12 0  0.28 0.12 0  0.3 0.12 0  0.32 0.12 0  0.34 0.12 0  0.36 0.12 0  0.38 0.12 0  0.4 0.12 0  0.42 0.12 0  0.44 0.12 0  0.46 0.12 0  0.48 0.12 0  0.5 0.12 0  0.52 0.12 0  0.54 0.12 0  0.5600000000000001 0.12 0  0.58 0.12 0  0.6 0.12 0  0.62 0.12 0  0.64 0.12 0  0.66 0.12 0  0.68 0.12 0  0.7 0.12 0  0.72 0.12 0  0.74 0.12 0  0.76 0.12 0  0.78 0.12 0  0.8 0.12 0  0.82 0.12 0  0.84 0.12 0  0.86 0.12 0  0.88 0.12 0  0.9 0.12 0  0.92 0.12 0  0.9399999999999999 0.12 0  0.96 0.12 0  0.98 0.12 0  1 0.12 0  0 0.14 0  0.02 0.14 0  0.04 0.14 0  0.06 0.14 0  0.08 0.14 0  0.1 0.14 0  0.12 0.14 0  0.14 0.14 0  0.16 0.14 0  0.18 0.14 0  0.2 0.14 0  0.22 0.14 0  0.24 0.14 0  0.26 0.14 0  0.28 0.14 0  0.3 0.14 0  0.32 0.14 0  0.34 0.14 0  0.36 0.14 0  0.38 0.14 0  0.4 0.14 0  0.42 0.14 0  0.44 0.14 0  0.46 0.14 0  0.48 0.14 0  0.5 0.14 0  0.52 0.14 0  0.54 0.14 0  0.5600000000000001 0.14 0  0.58 0.14 0  0.6 0.14 0  0.62 0.14 0  0.64 0.14 0  0.66 0.14 0  0.68 0.14 0  0.7 0.14 0  0.72 0.14 0  0.74 0.14 0  0.76 0.14 0  0.78 0.14 0  0.8 0.14 0  0.82 0.14 0  0.84 0.14 0  0.86 0.14 0  0.88 0.14 0  0.9 0.14 0  0.92 0.14 0  0.9399999999999999 0.14 0  0.96 0.14 0  0.98 0.14 0  1 0.14 0  0 0.16 0  0.02 0.16 0  0.04 0.16 0  0.06 0.16 0  0.08 0.16 0  0.1 0.16 0  0.12 0.16 0  0.14 0.16 0  0.16 0.16 0  0.18 0.16 0  0.2 0.16 0  0.22 0.16 0  0.24 0.16 0  0.26 0.16 0  0.28 0.16 0  0.3 0.16 0  0.32 0.16 0  0.34 0.16 0  0.36 0.16 0  0.38 0.16 0  0.4 0.16 0  0.42 0.16 0  0.44 0.16 0  0.46 0.16 0  0.48 0.16 0  0.5 0.16 0  0.52 0.16 0  0.54 0.16 0  0.5600000000000001 0.16 0  0.58 0.16 0  0.6 0.16 0  0.62 0.16 0  0.64 0.16 0  0.66 0.16 0  0.68 0.16 0  0.7 0.16 0  0.72 0.16 0  0.74 0.16 0  0.76 0.16 0  0.78 0.16 0  0.8 0.16 0  0.82 0.16 0  0.84 0.16 0  0.86 0.16 0  0.88 0.16 0  0.9 0.16 0  0.92 0.16 0  0.9399999999999999 0.16 0  0.96 0.16 0  0.98 0.16 0  1 0.16 0  0 0.18 0  0.02 0.18 0  0.04 0.18 0  0.06 0.18 0  0.08 0.18 0  0.1 0.18 0  0.12 0.18 0  0.14 0.18 0  0.16 0.18 0  0.18 0.18 0  0.2 0.18 0  0.22 0.18 0  0.24 0.18 0  0.26 0.18 0  0.28 0.18 0  0.3 0.18 0  0.32 0.18 0  0.34 0.18 0  0.36 0.18 0  0.38 0.18 0  0.4 0.18 0  0.42 0.18 0  0.44 0.18 0  0.46 0.18 0  0.48 0.18 0  0.5 0.18 0  0.52 0.18 0  0.54 0.18 0  0.5600000000000001 0.18 0  0.58 0.18 0  0.6 0.18 0  0.62 0.18 0  0.64 0.18 0  0.66 0.18 0  0.68 0.18 0  0.7 0.18 0  0.72 0.18 0  0.74 0.18 0  0.76 0.18 0  0.78 0.18 0  0.8 0.18 0  0.82 0.18 0  0.84 0.18 0  0.86 0.18 0  0.88 0.18 0  0.9 0.18 0  0.92 0.18 0  0.9399999999999999 0.18 0  0.96 0.18 0  0.98 0.18 0  1 0.18 0  0 0.2 0  0.02 0.2 0  0.04 0.2 0  0.06 0.2 0  0.08 0.2 0  0.1 0.2 0  0.12 0.2 0  0.14 0.2 0  0.16 0.2 0  0.18 0.2 0  0.2 0.2 0  0.22 0.2 0  0.24 0.2 0  0.26 0.2 0  0.28 0.2 0  0.3 0.2 0  0.32 0.2 0  0.34 0.2 0  0.36 0.2 0  0.38 0.2 0  0.4 0.2 0  0.42 0.2 0  0.44 0.2 0  0.46 0.2 0  0.48 0.2 0  0.5 0.2 0  0.52 0.2 0  0.54 0.2 0  0.5600000000000001 0.2 0  0.58 0.2 0  0.6 0.2 0  0.62 0.2 0  0.64 0.2 0  0.66 0.2 0  0.68 0.2 0  0.7 0.2 0  0.72 0.2 0  0.74 0.2 0  0.76 0.2 0  0.78 0.2 0  0.8 0.2 0  0.82 0.2 0  0.84 0.2 0  0.86 0.2 0  0.88 0.2 0  0.9 0.2 0  0.92 0.2 0  0.9399999999999999 0.2 0  0.96 0.2 0  0.98 0.2 0  1 0.2 0  0 0.22 0  0.02 0.22 0  0.04 0.22 0  0.06 0.22 0  0.08 0.22 0  0.1 0.22 0  0.12 0.22 0  0.14 0.22 0  0.16 0.22 0  0.18 0.22 0  0.2 0.22 0  0.22 0.22 0  0.24 0.22 0  0.26 0.22 0  0.28 0.22 0  0.3 0.22 0  0.32 0.22 0  0.34 0.22 0  0.36 0.22 0  0.38 0.22 0  0.4 0.22 0  0.42 0.22 0  0.44 0.22 0  0.46 0.22 0  0.48 0.22 0  0.5 0.22 0  0.52 0.22 0  0.54 0.22 0  0.5600000000000001 0.22 0  0.58 0.22 0  0.6 0.22 0  0.62 0.22 0  0.64 0.22 0  0.66 0.22 0  0.68 0.22 0  0.7 0.22 0  0.72 0.22 0  0.74 0.22 0  0.76 0.22 0  0.78 0.22 0  0.8 0.22 0  0.82 0.22 0  0.84 0.22 0  0.86 0.22 0  0.88 0.22 0  0.9 0.22 0  0.92 0.22 0  0.9399999999999999 0.22 0  0.96 0.22 0  0.98 0.22 0  1 0.22 0  0 0.24 0  0.02 0.24 0  0.04 0.24 0  0.06 0.24 0  0.08 0.24 0  0.1 0.24 0  0.12 0.24 0  0.14 0.24 0  0.16 0.24 0  0.18 0.24 0  0.2 0.24 0  0.22 0.24 0  0.24 0.24 0  0.26 0.24 0  0.28 0.24 0  0.3 0.24 0  0.32 0.24 0  0.34 0.24 0  0.36 0.24 0  0.38 0.24 0  0.4 0.24 0  0.42 0.24 0  0.44 0.24 0  0.46 0.24 0  0.48 0.24 0  0.5 0.24 0  0.52 0.24 0  0.54 0.24 0  0.5600000000000001 0.24 0  0.58 0.24 0  0.6 0.24 0  0.62 0.24 0  0.64 0.24 0  0.66 0.24 0  0.68 0.24 0  0.7 0.24 0  0.72 0.24 0  0.74 0.24 0  0.76 0.24 0  0.78 0.24 0  0.8 0.24 0  0.82 0.24 0  0.84 0.24 0  0.86 0.24 0  0.88 0.24 0  0.9 0.24 0  0.92 0.24 0  0.9399999999999999 0.24 0  0.96 0.24 0  0.98 0.24 0  1 0.24 0  0 0.26 0  0.02 0.26 0  0.04 0.26 0  0.06 0.26 0  0.08 0.26 0  0.1 0.26 0  0.12 0.26 0  0.14 0.26 0  0.16 0.26 0  0.18 0.26 0  0.2 0.26 0  0.22 0.26 0  0.24 0.26 0  0.26 0.26 0  0.28 0.26 0  0.3 0.26 0  0.32 0.26 0  0.34 0.26 0  0.36 0.26 0  0.38 0.26 0  0.4 0.26 0  0.42 0.26 0  0.44 0.26 0  0.46 0.26 0  0.48 0.26 0  0.5 0.26 0  0.52 0.26 0  0.54 0.26 0  0.5600000000000001 0.26 0  0.58 0.26 0  0.6 0.26 0  0.62 0.26 0  0.64 0.26 0  0.66 0.26 0  0.68 0.26 0  0.7 0.26 0  0.72 0.26 0  0.74 0.26 0  0.76 0.26 0  0.78 0.26 0  0.8 0.26 0  0.82 0.26 0  0.84 0.26 0  0.86 0.26 0  0.88 0.26 0  0.9 0.26 0  0.92 0.26 0  0.9399999999999999 0.26 0  0.96 0.26 0  0.98 0.26 0  1 0.26 0  0 0.28 0  0.02 0.28 0  0.04 0.28 0  0.06 0.28 0  0.08 0.28 0  0.1 0.28 0  0.12 0.28 0  0.14 0.28 0  0.16 0.28 0  0.18 0.28 0  0.2 0.28 0  0.22 0.28 0  0.24 0.28 0  0.26 0.28 0  0.28 0.28 0  0.3 0.28 0  0.32 0.28 0  0.34 0.28 0  0.36 0.28 0  0.38 0.28 0  0.4 0.28 0  0.42 0.28 0  0.44 0.28 0  0.46 0.28 0  0.48 0.28 0  0.5 0.28 0  0.52 0.28 0  0.54 0.28 0  0.5600000000000001 0.28 0  0.58 0.28 0  0.6 0.28 0  0.62 0.28 0  0.64 0.28 0  0.66 0.28 0  0.68 0.28 0  0.7 0.28 0  0.72 0.28 0  0.74 0.28 0  0.76 0.28 0  0.78 0.28 0  0.8 0.28 0  0.82 0.28 0  0.84 0.28 0  0.86 0.28
[...]
<PointData  Scalars="f_17"> 
<DataArray  type="Float64"  Name="f_17"  format="ascii">1.0000000000000000e+00  9.8800413899284756e-01  9.7600230575510261e-01  9.6398811943567264e-01  9.5195489879735729e-01  9.3989560476935641e-01  9.2780279702145096e-01  9.1566859341362183e-01  9.0348462945284502e-01  8.9124201678855364e-01  8.7893130024567168e-01  8.6654241300760582e-01  8.5406462957351781e-01  8.4148651608880476e-01  8.2879587760243845e-01  8.1597970174387557e-01  8.0302409823544274e-01  7.8991423356111190e-01  7.7663425999577418e-01  7.6316723805531161e-01  7.4949505125027072e-01  7.3559831180582147e-01  7.2145625573628536e-01  7.0704662531830154e-01  6.9234553657200293e-01  6.7732732880648006e-01  6.6196439257632800e-01  6.4622697147788921e-01  6.3008293201400023e-01  6.1349749417169530e-01  5.9643291324095793e-01  5.7884810053987534e-01  5.6069816678541606e-01  5.4193386638195529e-01  5.2250091315781155e-01  5.0233912690994520e-01  4.8138135366013679e-01  4.5955207770295492e-01  4.3676560507000578e-01  4.1292363660716758e-01  3.8791194719063576e-01  3.6159571213462444e-01  3.3381270337508084e-01  3.0436296318305656e-01  2.7299228054139835e-01  2.3936384441015471e-01  2.0300478798753069e-01  1.6319149520508114e-01  1.1865901580930489e-01  6.6713303772659160e-02  0.0000000000000000e+00  1.0000000000000000e+00  9.8800790659084281e-01  9.7600980040032315e-01  9.6399935951585625e-01  9.5196992978965722e-01  9.3991449228243340e-01  9.2782562542366609e-01  9.1569546590434192e-01  9.0351566862566601e-01  8.9127736545209812e-01  8.7897112244479814e-01  8.6658689523871202e-01  8.5411398220628054e-01  8.4154097501664460e-01  8.2885570615180937e-01  8.1604519288040744e-01  8.0309557711401880e-01  7.8999206047788129e-01  7.7671883381356333e-01  7.6325900019074155e-01  7.4959449033217795e-01  7.3570596914172015e-01  7.2157273175849201e-01  7.0717258722659049e-01  6.9248172744884717e-01  6.7747457855912252e-01  6.6212363116428030e-01  6.4639924502525758e-01  6.3026942259832719e-01  6.1369954434700091e-01  5.9665205672585797e-01  5.7908610103337677e-01  5.6095706764344500e-01  5.4221605502510073e-01  5.2280920579488410e-01  5.0267688180532799e-01  4.8175262535601299e-01  4.5996183142390701e-01  4.3722002202349303e-01  4.1343056101495018e-01  3.8848156278727503e-01  3.6224160736697725e-01  3.3455363271782740e-01  3.0522594587996232e-01  2.7401851222616791e-01  2.4062125166590367e-01  2.0461864727869047e-01  1.6543237862472410e-01  1.2224137944607133e-01  7.3967215585031831e-02  1.9998666693333080e-02  1.0000000000000000e+00  9.8801904191720047e-01  9.7603210147335551e-01  9.6403291397988100e-01  9.5201488163378345e-01  9.3997104027907574e-01  9.2789402315602776e-01  9.1577602292980964e-01  9.0360875239772898e-01  8.9138340383775327e-01  8.7909060679240703e-01  8.6672038400954654e-01  8.5426210521553647e-01  8.4170443835292730e-01  8.2903529786529484e-01  8.1624178955262205e-01  8.0331015144864559e-01  7.9022569008405130e-01  7.7697271139264001e-01  7.6353444538708803e-01  7.4989296357085067e-01  7.3602908785554999e-01  7.2192228950908055e-01  7.0755057635586838e-01  6.9289036607036381e-01  6.7791634292564584e-01  6.6260129475103346e-01  6.4691592607552717e-01  6.3082864243278025e-01  6.1430529950257140e-01  5.9730890905831746e-01  5.7979929143261688e-01  5.6173266119371246e-01  5.4306112864490197e-01  5.2373209418111233e-01  5.0368750482580260e-01  4.8286293149037918e-01  4.6118641026577334e-01  4.3857696934877410e-01  4.1494273214210231e-01  3.9017844284109865e-01  3.6416219946438338e-01  3.3675110060715235e-01  3.0777543471342234e-01  2.7703105336602507e-01  2.4427000493179987e-01  2.0919149530325309e-01  1.7144244829449357e-01  1.3066031011833143e-01  8.6657683221141243e-02  3.9989334186634161e-02  1.0000000000000000e+00  9.8803751434935894e-01  9.7606912111447652e-01  9.6408863879926587e-01  9.5208955586215915e-01  9.4006499598436388e-01  9.2800768212765217e-01  9.1590989931337152e-01  9.0376345613941478e-01  8.9155964494374029e-01  8.7928920043029468e-01  8.6694225651044055e-01  8.5450830106536901e-01  8.4197612829077151e-01  8.2933378823745219e-01  8.1656853310661570e-01  8.0366675979329827e-01  7.9061394809302876e-01  7.7739459389210919e-01  7.6399213654717779e-01  7.5038887952014643e-01  7.3656590316426207e-01  7.2250296834826144e-01  7.0817840934869802e-01  6.9356901412290894e-01  6.7864988968066409e-01  6.6339430978022274e-01  6.4777354155707745e-01  6.3175664691532074e-01  6.1531025352579460e-01  5.9839828902099157e-01  5.8098167037513060e-01  5.6301793840731340e-01  5.4446082471923296e-01  5.2525973502473633e-01  5.0535912858400545e-01  4.8469776819188498e-01  4.6320780891748203e-01  4.4081368704630425e-01  4.1743076514719551e-01  3.9296368959235489e-01  3.6730443521774869e-01  3.4033007771946594e-01  3.1190051954554560e-01  2.8185687086692457e-01  2.5002235390675048e-01  2.1621034321628055e-01  1.8025020871268327e-01  1.4205328163867312e-01  1.0175619958608897e-01  5.9964006479444588e-02  1.0000000000000000e+00  9.8806324888961483e-01  9.7612070117577954e-01  9.6416628987975828e-01  9.5219362112424411e-01  9.4019593916687338e-01  9.2816609084680524e-01  9.1609648911046382e-01  9.0397907544309131e-01  8.9180528104471890e-01  8.7956598655792495e-01  8.6725148011682718e-01  8.5485141344928162e-01  8.4235475572602381e-01  8.2974974480876973e-01  8.1702383550165047e-01  8.0416364435458687e-01  7.9115489050110777e-01  7.7798233193434774e-01  7.6462969653067769e-01  7.5107960701739274e-01  7.3731349894498233e-01  7.2331153056083941e-01  7.0905248328377457e-01  6.9451365124004849e-01  6.7967071803295342e-01  6.6449761856869005e-01  6.4896638333910439e-01  6.3304696205295496e-01  6.1670702289741264e-01  5.9991172298764062e-01  5.8262344471819050e-01  5.6480149177516958e-01  5.4640173754777832e-01  5.2737621771004328e-01  5.0767265809379014e-01  4.8723392919896891e-01  4.6599742091938529e-01  4.4389433756697522e-01  4.2084892856515477e-01  3.9677770320199257e-01  3.7158874631127364e-01  3.4518139053822283e-01  3.1744677725250592e-01  2.8827037690561302e-01  2.5753855144030796e-01  2.2515300726928728e-01  1.9105960077842085e-01  1.5530020961012095e-01  1.1809241296286176e-01  7.9914693969172695e-02  1.0000000000000000e+00  9.8809613430226995e-01  9.7618661599909373e-01  9.6426552435906376e-01  9.5232661480383618e-01  9.4036328451388462e-01  9.2836853761097138e-01  9.1633494961735518e-01  9.0425463097669889e-01  8.9211918944831270e-01  8.7991969118013624e-01  8.6764662024565409e-01  8.5528983640392087e-01  8.4283853081228965e-01  8.3028117938806645e-01  8.1760549347719691e-01  8.0479836744399003e-01  7.9184582274448445e-01  7.7873294798593928e-01  7.6544383440449071e-01  7.5196150611051560e-01  7.3826784435478654e-01  7.2434350495593580e-01  7.1016782789905264e-01  6.9571873796437345e-01  6.8097263507268702e-01  6.6590427284010800e-01  6.5048662362178222e-01  6.3469072809901161e-01  6.1848552724291905e-01  6.0183767430066792e-01  5.8471132435394035e-01  5.6706789909530109e-01  5.4886582493557867e-01  5.3006024370866978e-01  5.1060269762824018e-01  4.9044079473220814e-01  4.6951786950084307e-01  4.4777266858123976e-01  4.2513911870418114e-01  4.0154628178952007e-01  3.7691868597758971e-01  3.5117736568751112e-01  3.2424218673951627e-01  2.9603642347581993e-01  2.6649513071731423e-01  2.3557954747347429e-01  2.0330015163900333e-01  1.6974969334818585e-01  1.3514149747110865e-01  9.9833416646828155e-02  1.0000000000000000e+00  9.8813602629384423e-01  9.7626657518836146e-01  9.6438590314881323e-01  9.5248794595621455e-01  9.4056628532115771e-01  9.2861411511611858e-01  9.1662420699688785e-01  9.0458887521469400e-01  8.9249994043651248e-01  8.8034869239088409e-01  8.6812585114588814e-01  8.5582152680915480e-01  8.4342517741907441e-01  8.3092556477233603e-01  8.1831070790555882e-01  8.0556783391768205e-01  7.9268332578450573e-01  7.7964266677689142e-01  7.6643038104926164e-01  7.5302996991503912e-01  7.3942384327068211e-01  7.2559324557067473e-01  7.1151817569384634e-01  6.9717729997973887e-01  6.8254785765781723e-01  6.6760555785123166e-01  6.5232446732565674e-01  6.3667688819681245e-01  6.2063322494695428e-01  6.0416184039372900e-01  5.8722890080483225e-01  5.6979821131922581e-01  5.5183104447680209e-01  5.3328596738373446e-01  5.1411867750808027e-01  4.9428186436279381e-01  4.7372512607281719e-01  4.5239498870234290e-01  4.3023510638689483e-01  4.0718676804054538e-01  3.8318991062326546e-01  3.5818495094053887e-01  3.3211590802572677e-01  3.0493549417189514e-01  2.7661305950262427e-01  2.4714632716348922e-01  2.1657736952463394e-01  1.8501151310516836e-01  1.5263388185397381e-01  1.1971220728891938e-01  1.0000000000000000e+00  9.8818274931926275e-01  9.7636022619477858e-01  9.6452689409420611e-01  9.5267689920794096e-01  9.4080403833095216e-01  9.2890172638862734e-01  9.1696296343282735e-01  9.0498030094135673e-01  8.9294580726028050e-01  8.8085103202873993e-01  8.6868696942041801e-01  8.5644402002613051e-01  8.4411195118949722e-01  8.3167985559303448e-01  8.1913610787576641e-01  8.0646831904580851e-01  7.9366328843269141e-01  7.8070695290488634e-01  7.6758433305888918e-01  7.5427947606855050e-01  7.4077539486916766e-01  7.2705400334321735e-01  7.1309604717830133e-01  6.9888103009003366e-01  6.8438713515399674e-01  6.6959114108763151e-01  6.5446833348926226e-01  6.3899241131340112e-01  6.2313538929334111e-01  6.0686749769493009e-01  5.9015708182137194e-01  5.7297050527120874e-01  5.5527206335588253e-01  5.3702391672301830e-01  5.1818606072482620e-01  4.9871635433320421e-01  4.7857064476909839e-01  4.5770304237651604e-01  4.3606642718734667e-01  4.1361330723255751e-01  3.9029720205980767e-01  3.6607479420972888e-01  3.4090917077687194e-01  3.1477454344770833e-01  2.8766282858812176e-01  2.5959226350988335e-01  2.3061761645189680e-01  2.0084025342322764e-01  1.7041429374937961e-01  1.3954311464423649e-01  1.0000000000000000e+00  9.8823609803938040e-01  9.7646715691711372e-01  9.6468787558469227e-01  9.5289263942104041e-01  9.4107548956271125e-01  9.2923009191159334e-01  9.1734970568650187e-01  9.0542715138430641e-01  8.9345477801791007e-01  8.8142442949877264e-01  8.6932741002971781e-01  8.5715444836990762e-01  8.4489566082874901e-01  8.3254051283988917e-01  8.2007777896104639e-01  8.0749550114095847e-01  7.9478094509214126e-01  7.8192055460865550e-01  7.6889990367346173e-01  7.5570364621262243e-01  7.4231546337711074e-01  7.2871800827231137e-01  7.1489284811749532e-01  7.0082040391276290e-01  6.8647988783351477e-01  6.7184923878296909e-01  6.5690505684087386e-01  6.4162253779328637e-01  6.2597540957405606e-01  6.0993587337938393e-01  5.9347455355536582e-01  5.7656046228013424e-01  5.5916098781603663e-01  5.4124191904341501e-01  5.2276752459128994e-01  5.0370071280721695e-01  4.8400330990790680e-01  4.6363650894243963e-01  4.4256156272210373e-01  4.2074082026266169e-01  3.9813923778643895e-01  3.7472652773511778e-01  3.5048013110212112e-01  3.2538918488909441e-01  2.9945956156482195e-01  2.7271980885474878e-01  2.4522733033732427e-01  2.1707338234734347e-01  1.8838458144812190e-01  1.5931820661424598e-01  1.0000000000000000e+00  9.8829583874378701e-01  9.7658689844864555e-01  9.6486814057188697e-01  9.5313421700826095e-01  9.4137944100724957e-01  9.2959775781086385e-01  9.1778271490933894e-01  9.0592743181039981e-01  8.9402456921860152e-01  8.8206629752268728e-01  8.7004426449021999e-01  8.5794956206994466e-01  8.4577269220390350e-01  8.3350353155403456e-01  8.2113129505265314e-01  8.0864449819401840e-01  7.9603091799644310e-01  7.8327755258300746e-01  7.7037057935633002e-01  7.5729531178235721e-01  7.4403615485438246e-01  7.3057655938762989e-01  7.1689897540541425e-01  7.0298480503173744e-01  6.8881435551843906e-01  6.7436679332986060e-01  6.5962010061507215e-01  6.4455103595916596e-01  6.2913510207897294e-01  6.1334652419421787e-01  5.9715824427094288e-01  5.8054193834618484e-01  5.6346806689606921e-01  5.4590597195675072e-01  5.2782403976618397e-01  5.0918995443737192e-01  4.8997107698779724e-01  4.7013499522642083e-01  4.4965030349057961e-01  4.2848768615906607e-01  4.0662139267426495e-01  3.8403119876841346e-01  3.6070493774816614e-01  3.3664163847593614e-01  3.1185519585631277e-01  2.8637829365621437e-01  2.6026598019959352e-01  2.3359790105235786e-01  2.0647787426153250e-01  1.7902957342582418e-01  1.0000000000000000e+00  9.8836171083722757e-01  9.7671892802335136e-01  9.6506690096792236e-01  9.5340057381757903e-01  9.4171455807142712e-01  9.3000310496616811e-01  9.1826007755448147e-01  9.0647892239980399e-01  8.9465264081248863e-01  8.8277375955566550e-01  8.7083430095362879e-01  8.5882575234134195e-01  8.4673903480119117e-01  8.3456447114323562e-01  8.2229175309887503e-01  8.0990990771652127e-01  7.9740726297313802e-01  7.8477141264974615e-01  7.7198918056504351e-01  7.5904658432310179e-01  7.4592879881380514e-01  7.3262011981515407e-01  7.1910392819389535e-01  7.0536265539733456e-01  6.9137775119089240e-01  6.7712965494456900e-01  6.6259777223587024e-01  6.4776045915497282e-01  6.3259501752036418e-01  6.1707770530551198e-01  6.0118376802393958e-01  5.8488749872809742e-01  5.6816233677682237e-01  5.5098101876742944e-01  5.3331579916899874e-01  5.1513876336454745e-01  4.9642226204727435e-01  4.7713950302763092e-01  4.5726534383883266e-01  4.3677733457502155e-01  4.1565706222483223e-01  3.9389184024277851e-01  3.7147676213276337e-01  3.4841708413069650e-01  3.2473080687397843e-01  3.0045118069526311e-01  2.7562867228327093e-01  2.5033174756835547e-01  2.2464574943429494e-01  1.9866933079506122e-01  1.0000000000000000e+00  9.8843342841612292e-01  9.7686267216869149e-01  9.6528329238999178e-01  9.5369054951176391e-01  9.4207937766695127e-01  9.3044435891329702e-01  9.1877969722557917e-01  9.0707919220481148e-01  8.9533621245634476e-01  8.8354366859436573e-01  8.7169398583784874e-01  8.5977907617287597e-01  8.4779031006896521e-01  8.3571848775350677e-01  8.2355381006979023e-01  8.1128584897186851e-01  7.9890351774559654e-01  7.8639504109207603e-01  7.7374792527059277e-01  7.6094892857707230e-01  7.4798403253641244e-01  7.3483841431967856e-01  7.2149642106902101e-01  7.0794154703584888e-01  6.9415641472631007e-01  6.8012276162173468e-01  6.6582143452518461e-01  6.5123239420998014e-01  6.3633473385143913e-01  6.2110671575742948e-01  6.0552583223449397e-01  5.8956889809994517e-01  5.7321218444554400e-01  5.5643160583615592e-01  5.3920297621795721e-01  5.2150235237457987e-01  5.0330648762281105e-01  4.8459342214073942e-01  4.6534323899551910e-01  4.4553901503098925e-01  4.2516799075672029e-01  4.0422296947603564e-01  3.8270392806672859e-01  3.6061977446189480e-01  3.3799011584928407e-01  3.1484680867968179e-01  2.9123496141951849e-01  2.6721298901867974e-01  2.4285133253896207e-01  2.1822962308086932e-01  1.0000000000000000e+00  9.8851068193533309e-01  9.7701751004933324e-01  9.6551637920767097e-01  9.5400288836866021e-01  9.4247231683907895e-01  9.3091960040409893e-01  9.1933930729936442e-01  9.0772561399660778e-01  8.9607228077967049e-01  8.8437262709555597e-01  8.7261950667546595e-01  8.6080528243413013e-01  8.4892180117278015e-01  8.3696036813280006e-01  8.2491172147462000e-01  8.1276600679141675e-01  8.0051275181159187e-01  7.8814084150039243e-01  7.7563849384258732e-01  7.6299323667885732e-01  7.5019188608364173e-01  7.3722052691803475e-01  7.2406449637613546e-01  7.1070837157725220e-01  6.9713596255237054e-01  6.8333031234716257e-01  6.6927370643502293e-01  6.5494769422545740e-01  6.4033312619306015e-01  6.2541021107097350e-01  6.1015859868244127e-01  5.9455749535436797e-01  5.7858582048672114e-01  5.6222241473517431e-01  5.4544631234693874e-01  5.2823709232951721e-01  5.1057532504236158e-01  4.9244313196754830e-01  4.7382487598739859e-01  4.5470799616712726e-01  4.3508399294825739e-01  4.1494955440539355e-01  3.9430778916193837e-01  3.7316949463543431e-01  3.5155434066046903e-01  3.2949179326024181e-01  3.0702155450336799e-01  2.8419327509154307e-01  2.6106533674972737e-01  2.3770262642713458e-01  1.0000000000000000e+00  9.8859313995494424e-01  9.7718277697510447e-01  9.6576515984357392e-01  9.5433624642667825e-01  9.4289168183234384e-01  9.3142677649300076e-01  9.1993648416044049e-01  9.0841537980492659e-01  8.9685763741800983e-01  8.8525700772817617e-01  8.7360679585111556e-01  8.6189983891255628e-01  8.5012848370207028e-01  8.3828456444186816e-01  8.2635938078678950e-01  8.1434367621186421e-01  8.0222761699405720e-01  7.9000077205749686e-01  7.7765209402968838e-01  7.6516990195366275e-01  7.5254186622236774e-01  7.3975499645253995e-01  7.2679563320280016e-01  7.1364944467321623e-01  7.0030142981121524e-01  6.8673592960343477e-01  6.7293664876866099e-01  6.5888669059860849e-01  6.4456860833699980e-01  6.2996447725811577e-01  6.1505599251466514e-01  5.9982459887283612e-01  5.8425165962294112e-01  5.6831867319810125e-01  5.5200754724908296e-01  5.3530094092592839e-01  5.1818268659886924e-01  5.0063830173222257e-01  4.8265559940163860e-01  4.6422540105316740e-01  4.4534234633490205e-01  4.2600578087272784e-01  4.0622068263557487e-01  3.8599856088200818e-01  3.6535823041977428e-01  3.4432633318771955e-01  3.2293745855452399e-01  3.0123371693758610e-01  2.7926366292939880e-01  2.5708055189215512e-01  1.0000000000000000e+00  9.8868045095266988e-01  9.7735776804159513e-01  9.6602857227515881e-01  9.5468919890004211e-01  9.4333567749271674e-01  9.3196371202260153e-01  9.2056866089172762e-01  9.0914551696186385e-01  8.9768888758851517e-01  8.8619297469239944e-01  8.7465155491346025e-01  8.6305795991070777e-01  8.5140505689402413e-01  8.3968522950246316e-01  8.2789035917874387e-01  8.1601180723309052e-01  8.0404039784315251e-01  7.9196640230270376e-01  7.7977952491292613e-01  7.6746889100959437e-01  7.5502303774141921e-01  7.4242990836385758e-01  7.2967685099444357e-01  7.1675062299658598e-01  7.0363740242609363e-01  6.9032280829650716e-01  6.7679193180394481e-01  6.6302938110760334e-01  6.4901934279455120e-01  6.3474566376932906e-01  6.2019195799509763e-01  6.0534174325565426e-01  5.9017861386779435e-01  5.7468645597995760e-01  5.5884971262654026e-01  5.4265370588017703e-01  5.2608502297762927e-01  5.0913197179515568e-01  4.9178510799477659e-01  4.7403783091612633e-01  4.5588703716123968e-01  4.3733380922968751e-01  4.1838410132673254e-01  3.9904936626421833e-01  3.7934704833150640e-01  3.5930085127702904e-01  3.3894068442895070e-01  3.1830220114094099e-01  2.9742587867671977e-01  2.7635564856411376e-01  1.0000000000000000e+00  9.8877224518604767e-01  9.7754174187038090e-01  9.6630549968543178e-01  9.5506024779032472e-01  9.4380241690969902e-01  9.3252812138694607e-01  9.2123314127210065e-01  9.0991290447154483e-01  8.9856246899610703e-01  8.8717650535636561e-01  8.7574927916959777e-01  8.6427463406238503e-01  8.5274597497714122e-01  8.4115625202076894e-01  8.2949794503032981e-01  8.1776304907547315e-01  8.0594306117206072e-01  7.9402896854792870e-01  7.8201123888242596e-01  7.6987981303898390e-01  7.5762410092777954e-01  7.4523298127715354e-01  7.3269480626199945e-01  7.1999741213930568e-01  7.0712813728001578e-01  6.9407384926692628e-01  6.8082098305410033e-01  6.6735559255625776e-01  6.5366341845556852e-01  6.3972997547140120e-01  6.2554066282027398e-01  6.1108090206925181e-01  5.9633630700704310e-01  5.8129289044525445e-01  5.6593731290101434e-01  5.5025717773453608e-01  5.3424137629354085e-01  5.1788048465730918e-01  5.0116721032513178e-01  4.8409688228072256e-01  4.6666797095917883e-01  4.4888261560461984e-01  4.3074712558673983e-01  4.1227241036331602e-01  3.9347428180613148e-01  3.7437356553736462e-01  3.5499595866949002e-01  3.3537158394725736e-01  3.1553421734236309e-01  2.9552020666133955e-01  1.0000000000000000e+00  9.8886813658859973e-01  9.7773392441641405e-01  9.6659477621218493e-01  9.5544782962454988e-01  9.4428993120773530e-01  9.3311762045933300e-01  9.2192711394361804e-01  9.1071428954125888e-01  8.9947467087624400e-01  8.8820341198363184e-01  8.7689528229795177e-01  8.6554465206220188e-01  8.5414547828218035e