<?xml version="1.0"?>
<VTKFile type="UnstructuredGrid"  version="0.1"  >
<UnstructuredGrid>
<Piece  NumberOfPoints="2601" NumberOfCells="5000">
<Points>
<DataArray  type="Float64"  NumberOfComponents="3"  format="ascii">0 0 0  0.02 0 0  0.04 0 0  0.06 0 0  0.08 0 0  0.1 0 0  0.12 0 0  0.14 0 0  0.16 0 0  0.18 0 0  0.2 0 0  0.22 0 0  0.24 0 0  0.26 0 0  0.28 0 0  0.3 0 0  0.32 0 0  0.34 0 0  0.36 0 0  0.38 0 0  0.4 0 0  0.42 0 0  0.44 0 0  0.46 0 0  0.48 0 0  0.5 0 0  0.52 0 0  0.54 0 0  0.5600000000000001 0 0  0.58 0 0  0.6 0 0  0.62 0 0  0.64 0 0  0.66 0 0  0.68 0 0  0.7 0 0  0.72 0 0  0.74 0 0  0.76 0 0  0.78 0 0  0.8 0 0  0.82 0 0  0.84 0 0  0.86 0 0  0.88 0 0  0.9 0 0  0.92 0 0  0.9399999999999999 0 0  0.96 0 0  0.98 0 0  1 0 0  0 0.02 0  0.02 0.02 0  0.04 0.02 0  0.06 0.02 0  0.08 0.02 0  0.1 0.02 0  0.12 0.02 0  0.14 0.02 0  0.16 0.02 0  0.18 0.02 0  0.2 0.02 0  0.22 0.02 0  0.24 0.02 0  0.26 0.02 0  0.28 0.02 0  0.3 0.02 0  0.32 0.02 0  0.34 0.02 0  0.36 0.02 0  0.38 0.02 0  0.4 0.02 0  0.42 0.02 0  0.44 0.02 0  0.46 0.02 0  0.48 0.02 0  0.5 0.02 0  0.52 0.02 0  0.54 0.02 0  0.5600000000000001 0.02 0  0.58 0.02 0  0.6 0.02 0  0.62 0.02 0  0.64 0.02 0  0.66 0.02 0  0.68 0.02 0  0.7 0.02 0  0.72 0.02 0  0.74 0.02 0  0.76 0.02 0  0.78 0.02 0  0.8 0.02 0  0.82 0.02 0  0.84 0.02 0  0.86 0.02 0  0.88 0.02 0  0.9 0.02 0  0.92 0.02 0  0.9399999999999999 0.02 0  0.96 0.02 0  0.98 0.02 0  1 0.02 0  0 0.04 0  0.02 0.04 0  0.04 0.04 0  0.06 0.04 0  0.08 0.04 0  0.1 0.04 0  0.12 0.04 0  0.14 0.04 0  0.16 0.04 0  0.18 0.04 0  0.2 0.04 0  0.22 0.04 0  0.24 0.04 0  0.26 0.04 0  0.28 0.04 0  0.3 0.04 0  0.32 0.04 0  0.34 0.04 0  0.36 0.04 0  0.38 0.04 0  0.4 0.04 0  0.42 0.04 0  0.44 0.04 0  0.46 0.04 0  0.48 0.04 0  0.5 0.04 0  0.52 0.04 0  0.54 0.04 0  0.5600000000000001 0.04 0  0.58 0.04 0  0.6 0.04 0  0.62 0.04 0  0.64 0.04 0  0.66 0.04 0  0.68 0.04 0  0.7 0.04 0  0.72 0.04 0  0.74 0.04 0  0.76 0.04 0  0.78 0.04 0  0.8 0.04 0  0.82 0.04 0  0.84 0.04 0  0.86 0.04 0  0.88 0.04 0  0.9 0.04 0  0.92 0.04 0  0.9399999999999999 0.04 0  0.96 0.04 0  0.98 0.04 0  1 0.04 0  0 0.06 0  0.02 0.06 0  0.04 0.06 0  0.06 0.06 0  0.08 0.06 0  0.1 0.06 0  0.12 0.06 0  0.14 0.06 0  0.16 0.06 0  0.18 0.06 0  0.2 0.06 0  0.22 0.06 0  0.24 0.06 0  0.26 0.06 0  0.28 0.06 0  0.3 0.06 0  0.32 0.06 0  0.34 0.06 0  0.36 0.06 0  0.38 0.06 0  0.4 0.06 0  0.42 0.06 0  0.44 0.06 0  0.46 0.06 0  0.48 0.06 0  0.5 0.06 0  0.52 0.06 0  0.54 0.06 0  0.5600000000000001 0.06 0  0.58 0.06 0  0.6 0.06 0  0.62 0.06 0  0.64 0.06 0  0.66 0.06 0  0.68 0.06 0  0.7 0.06 0  0.72 0.06 0  0.74 0.06 0  0.76 0.06 0  0.78 0.06 0  0.8 0.06 0  0.82 0.06 0  0.84 0.06 0  0.86 0.06 0  0.88 0.06 0  0.9 0.06 0  0.92 0.06 0  0.9399999999999999 0.06 0  0.96 0.06 0  0.98 0.06 0  1 0.06 0  0 0.08 0  0.02 0.08 0  0.04 0.08 0  0.06 0.08 0  0.08 0.08 0  0.1 0.08 0  0.12 0.08 0  0.14 0.08 0  0.16 0.08 0  0.18 0.08 0  0.2 0.08 0  0.22 0.08 0  0.24 0.08 0  0.26 0.08 0  0.28 0.08 0  0.3 0.08 0  0.32 0.08 0  0.34 0.08 0  0.36 0.08 0  0.38 0.08 0  0.4 0.08 0  0.42 0.08 0  0.44 0.08 0  0.46 0.08 0  0.48 0.08 0  0.5 0.08 0  0.52 0.08 0  0.54 0.08 0  0.5600000000000001 0.08 0  0.58 0.08 0  0.6 0.08 0  0.62 0.08 0  0.64 0.08 0  0.66 0.08 0  0.68 0.08 0  0.7 0.08 0  0.72 0.08 0  0.74 0.08 0  0.76 0.08 0  0.78 0.08 0  0.8 0.08 0  0.82 0.08 0  0.84 0.08 0  0.86 0.08 0  0.88 0.08 0  0.9 0.08 0  0.92 0.08 0  0.9399999999999999 0.08 0  0.96 0.08 0  0.98 0.08 0  1 0.08 0  0 0.1 0  0.02 0.1 0  0.04 0.1 0  0.06 0.1 0  0.08 0.1 0  0.1 0.1 0  0.12 0.1 0  0.14 0.1 0  0.16 0.1 0  0.18 0.1 0  0.2 0.1 0  0.22 0.1 0  0.24 0.1 0  0.26 0.1 0  0.28 0.1 0  0.3 0.1 0  0.32 0.1 0  0.34 0.1 0  0.36 0.1 0  0.38 0.1 0  0.4 0.1 0  0.42 0.1 0  0.44 0.1 0  0.46 0.1 0  0.48 0.1 0  0.5 0.1 0  0.52 0.1 0  0.54 0.1 0  0.5600000000000001 0.1 0  0.58 0.1 0  0.6 0.1 0  0.62 0.1 0  0.64 0.1 0  0.66 0.1 0  0.68 0.1 0  0.7 0.1 0  0.72 0.1 0  0.74 0.1 0  0.76 0.1 0  0.78 0.1 0  0.8 0.1 0  0.82 0.1 0  0.84 0.1 0  0.86 0.1 0  0.88 0.1 0  0.9 0.1 0  0.92 0.1 0  0.9399999999999999 0.1 0  0.96 0.1 0  0.98 0.1 0  1 0.1 0  0 0.12 0  0.02 0.12 0  0.04 0.12 0  0.06 0.12 0  0.08 0.12 0  0.1 0.12 0  0.12 0.12 0  0.14 0.12 0  0.16 0.12 0  0.18 0.12 0  0.2 0.12 0  0.22 0.12 0  0.24 0.12 0  0.26 0.12 0  0.28 0.12 0  0.3 0.12 0  0.32 0.12 0  0.34 0.12 0  0.36 0.12 0  0.38 0.12 0  0.4 0.12 0  0.42 0.12 0  0.44 0.12 0  0.46 0.12 0  0.48 0.12 0  0.5 0.12 0  0.52 0.12 0  0.54 0.12 0  0.5600000000000001 0.12 0  0.58 0.12 0  0.6 0.12 0  0.62 0.12 0  0.64 0.12 0  0.66 0.12 0  0.68 0.12 0  0.7 0.12 0  0.72 0.12 0  0.74 0.12 0  0.76 0.12 0  0.78 0.12 0  0.8 0.12 0  0.82 0.12 0  0.84 0.12 0  0.86 0.12 0  0.88 0.12 0  0.9 0.12 0  0.92 0.12 0  0.9399999999999999 0.12 0  0.96 0.12 0  0.98 0.12 0  1 0.12 0  0 0.14 0  0.02 0.14 0  0.04 0.14 0  0.06 0.14 0  0.08 0.14 0  0.1 0.14 0  0.12 0.14 0  0.14 0.14 0  0.16 0.14 0  0.18 0.14 0  0.2 0.14 0  0.22 0.14 0  0.24 0.14 0  0.26 0.14 0  0.28 0.14 0  0.3 0.14 0  0.32 0.14 0  0.34 0.14 0  0.36 0.14 0  0.38 0.14 0  0.4 0.14 0  0.42 0.14 0  0.44 0.14 0  0.46 0.14 0  0.48 0.14 0  0.5 0.14 0  0.52 0.14 0  0.54 0.14 0  0.5600000000000001 0.14 0  0.58 0.14 0  0.6 0.14 0  0.62 0.14 0  0.64 0.14 0  0.66 0.14 0  0.68 0.14 0  0.7 0.14 0  0.72 0.14 0  0.74 0.14 0  0.76 0.14 0  0.78 0.14 0  0.8 0.14 0  0.82 0.14 0  0.84 0.14 0  0.86 0.14 0  0.88 0.14 0  0.9 0.14 0  0.92 0.14 0  0.9399999999999999 0.14 0  0.96 0.14 0  0.98 0.14 0  1 0.14 0  0 0.16 0  0.02 0.16 0  0.04 0.16 0  0.06 0.16 0  0.08 0.16 0  0.1 0.16 0  0.12 0.16 0  0.14 0.16 0  0.16 0.16 0  0.18 0.16 0  0.2 0.16 0  0.22 0.16 0  0.24 0.16 0  0.26 0.16 0  0.28 0.16 0  0.3 0.16 0  0.32 0.16 0  0.34 0.16 0  0.36 0.16 0  0.38 0.16 0  0.4 0.16 0  0.42 0.16 0  0.44 0.16 0  0.46 0.16 0  0.48 0.16 0  0.5 0.16 0  0.52 0.16 0  0.54 0.16 0  0.5600000000000001 0.16 0  0.58 0.16 0  0.6 0.16 0  0.62 0.16 0  0.64 0.16 0  0.66 0.16 0  0.68 0.16 0  0.7 0.16 0  0.72 0.16 0  0.74 0.16 0  0.76 0.16 0  0.78 0.16 0  0.8 0.16 0  0.82 0.16 0  0.84 0.16 0  0.86 0.16 0  0.88 0.16 0  0.9 0.16 0  0.92 0.16 0  0.9399999999999999 0.16 0  0.96 0.16 0  0.98 0.16 0  1 0.16 0  0 0.18 0  0.02 0.18 0  0.04 0.18 0  0.06 0.18 0  0.08 0.18 0  0.1 0.18 0  0.12 0.18 0  0.14 0.18 0  0.16 0.18 0  0.18 0.18 0  0.2 0.18 0  0.22 0.18 0  0.24 0.18 0  0.26 0.18 0  0.28 0.18 0  0.3 0.18 0  0.32 0.18 0  0.34 0.18 0  0.36 0.18 0  0.38 0.18 0  0.4 0.18 0  0.42 0.18 0  0.44 0.18 0  0.46 0.18 0  0.48 0.18 0  0.5 0.18 0  0.52 0.18 0  0.54 0.18 0  0.5600000000000001 0.18 0  0.58 0.18 0  0.6 0.18 0  0.62 0.18 0  0.64 0.18 0  0.66 0.18 0  0.68 0.18 0  0.7 0.18 0  0.72 0.18 0  0.74 0.18 0  0.76 0.18 0  0.78 0.18 0  0.8 0.18 0  0.82 0.18 0  0.84 0.18 0  0.86 0.18 0  0.88 0.18 0  0.9 0.18 0  0.92 0.18 0  0.9399999999999999 0.18 0  0.96 0.18 0  0.98 0.18 0  1 0.18 0  0 0.2 0  0.02 0.2 0  0.04 0.2 0  0.06 0.2 0  0.08 0.2 0  0.1 0.2 0  0.12 0.2 0  0.14 0.2 0  0.16 0.2 0  0.18 0.2 0  0.2 0.2 0  0.22 0.2 0  0.24 0.2 0  0.26 0.2 0  0.28 0.2 0  0.3 0.2 0  0.32 0.2 0  0.34 0.2 0  0.36 0.2 0  0.38 0.2 0  0.4 0.2 0  0.42 0.2 0  0.44 0.2 0  0.46 0.2 0  0.48 0.2 0  0.5 0.2 0  0.52 0.2 0  0.54 0.2 0  0.5600000000000001 0.2 0  0.58 0.2 0  0.6 0.2 0  0.62 0.2 0  0.64 0.2 0  0.66 0.2 0  0.68 0.2 0  0.7 0.2 0  0.72 0.2 0  0.74 0.2 0  0.76 0.2 0  0.78 0.2 0  0.8 0.2 0  0.82 0.2 0  0.84 0.2 0  0.86 0.2 0  0.88 0.2 0  0.9 0.2 0  0.92 0.2 0  0.9399999999999999 0.2 0  0.96 0.2 0  0.98 0.2 0  1 0.2 0  0 0.22 0  0.02 0.22 0  0.04 0.22 0  0.06 0.22 0  0.08 0.22 0  0.1 0.22 0  0.12 0.22 0  0.14 0.22 0  0.16 0.22 0  0.18 0.22 0  0.2 0.22 0  0.22 0.22 0  0.24 0.22 0  0.26 0.22 0  0.28 0.22 0  0.3 0.22 0  0.32 0.22 0  0.34 0.22 0  0.36 0.22 0  0.38 0.22 0  0.4 0.22 0  0.42 0.22 0  0.44 0.22 0  0.46 0.22 0  0.48 0.22 0  0.5 0.22 0  0.52 0.22 0  0.54 0.22 0  0.5600000000000001 0.22 0  0.58 0.22 0  0.6 0.22 0  0.62 0.22 0  0.64 0.22 0  0.66 0.22 0  0.68 0.22 0  0.7 0.22 0  0.72 0.22 0  0.74 0.22 0  0.76 0.22 0  0.78 0.22 0  0.8 0.22 0  0.82 0.22 0  0.84 0.22 0  0.86 0.22 0  0.88 0.22 0  0.9 0.22 0  0.92 0.22 0  0.9399999999999999 0.22 0  0.96 0.22 0  0.98 0.22 0  1 0.22 0  0 0.24 0  0.02 0.24 0  0.04 0.24 0  0.06 0.24 0  0.08 0.24 0  0.1 0.24 0  0.12 0.24 0  0.14 0.24 0  0.16 0.24 0  0.18 0.24 0  0.2 0.24 0  0.22 0.24 0  0.24 0.24 0  0.26 0.24 0  0.28 0.24 0  0.3 0.24 0  0.32 0.24 0  0.34 0.24 0  0.36 0.24 0  0.38 0.24 0  0.4 0.24 0  0.42 0.24 0  0.44 0.24 0  0.46 0.24 0  0.48 0.24 0  0.5 0.24 0  0.52 0.24 0  0.54 0.24 0  0.5600000000000001 0.24 0  0.58 0.24 0  0.6 0.24 0  0.62 0.24 0  0.64 0.24 0  0.66 0.24 0  0.68 0.24 0  0.7 0.24 0  0.72 0.24 0  0.74 0.24 0  0.76 0.24 0  0.78 0.24 0  0.8 0.24 0  0.82 0.24 0  0.84 0.24 0  0.86 0.24 0  0.88 0.24 0  0.9 0.24 0  0.92 0.24 0  0.9399999999999999 0.24 0  0.96 0.24 0  0.98 0.24 0  1 0.24 0  0 0.26 0  0.02 0.26 0  0.04 0.26 0  0.06 0.26 0  0.08 0.26 0  0.1 0.26 0  0.12 0.26 0  0.14 0.26 0  0.16 0.26 0  0.18 0.26 0  0.2 0.26 0  0.22 0.26 0  0.24 0.26 0  0.26 0.26 0  0.28 0.26 0  0.3 0.26 0  0.32 0.26 0  0.34 0.26 0  0.36 0.26 0  0.38 0.26 0  0.4 0.26 0  0.42 0.26 0  0.44 0.26 0  0.46 0.26 0  0.48 0.26 0  0.5 0.26 0  0.52 0.26 0  0.54 0.26 0  0.5600000000000001 0.26 0  0.58 0.26 0  0.6 0.26 0  0.62 0.26 0  0.64 0.26 0  0.66 0.26 0  0.68 0.26 0  0.7 0.26 0  0.72 0.26 0  0.74 0.26 0  0.76 0.26 0  0.78 0.26 0  0.8 0.26 0  0.82 0.26 0  0.84 0.26 0  0.86 0.26 0  0.88 0.26 0  0.9 0.26 0  0.92 0.26 0  0.9399999999999999 0.26 0  0.96 0.26 0  0.98 0.26 0  1 0.26 0  0 0.28 0  0.02 0.28 0  0.04 0.28 0  0.06 0.28 0  0.08 0.28 0  0.1 0.28 0  0.12 0.28 0  0.14 0.28 0  0.16 0.28 0  0.18 0.28 0  0.2 0.28 0  0.22 0.28 0  0.24 0.28 0  0.26 0.28 0  0.28 0.28 0  0.3 0.28 0  0.32 0.28 0  0.34 0.28 0  0.36 0.28 0  0.38 0.28 0  0.4 0.28 0  0.42 0.28 0  0.44 0.28 0  0.46 0.28 0  0.48 0.28 0  0.5 0.28 0  0.52 0.28 0  0.54 0.28 0  0.5600000000000001 0.28 0  0.58 0.28 0  0.6 0.28 0  0.62 0.28 0  0.64 0.28 0  0.66 0.28 0  0.68 0.28 0  0.7 0.28 0  0.72 0.28 0  0.74 0.28 0  0.76 0.28 0  0.78 0.28 0  0.8 0.28 0  0.82 0.28 0  0.84 0.28 0  0.86 0.28
[...]
<PointData  Scalars="f_17"> 
<DataArray  type="Float64"  Name="f_17"  format="ascii">1.0000000000000000e+00  9.4030594870945894e-01  8.8435780971950950e-01  8.3193622120393951e-01  7.8283104772026058e-01  7.3684384202959807e-01  6.9378793944349071e-01  6.5348798299099231e-01  6.1577931110185780e-01  5.8050732317698839e-01  5.4752685741845131e-01  5.1670159176496100e-01  4.8790347092869546e-01  4.6101215953629981e-01  4.3591452009417214e-01  4.1250411388697822e-01  3.9068072259047310e-01  3.7034988817207465e-01  3.5142246848853298e-01  3.3381420582854526e-01  3.1744530546354049e-01  3.0224002104234821e-01  2.8812624337648840e-01  2.7503508879186189e-01  2.6290048274483291e-01  2.5165873378406989e-01  2.4124809214163007e-01  2.3160828620006693e-01  2.2268002872744172e-01  2.1440448298783696e-01  2.0672267646319734e-01  1.9957484673457315e-01  1.9289969973118806e-01  1.8663355456103090e-01  1.8070934071757438e-01  1.7505540141058196e-01  1.6959403916510821e-01  1.6423971348823874e-01  1.5889675989556371e-01  1.5345643534027664e-01  1.4779298944647137e-01  1.4175827973190117e-01  1.3517412195166140e-01  1.2782093850953979e-01  1.1941996344681695e-01  1.0960327366764377e-01  9.7858184266640225e-02  8.3409551349251335e-02  6.4924626946744196e-02  3.9617362872097210e-02  0.0000000000000000e+00  1.0000000000000000e+00  9.4029556010424808e-01  8.8434631810258502e-01  8.3192598303128595e-01  7.8282277191157257e-01  7.3683779723596676e-01  6.9378426209502175e-01  6.5348676848102283e-01  6.1578064604697291e-01  5.8051129922341571e-01  5.4753357838750327e-01  5.1671117811027267e-01  4.8791606305420898e-01  4.6102792066828191e-01  4.3593363906194160e-01  4.1252680802145619e-01  3.9070724088503866e-01  3.7038051482352974e-01  3.5145752692944426e-01  3.3385406336823065e-01  3.1749037867046676e-01  3.0229078202503173e-01  2.8818322715394978e-01  2.7509890199032672e-01  2.6297181391799046e-01  2.5173836573476799e-01  2.4133691673055574e-01  2.3170732227216936e-01  2.2279044398481448e-01  2.1452762091106972e-01  2.0686008976577863e-01  1.9972833937877704e-01  1.9307138032020268e-01  1.8682590508046046e-01  1.8092530634165960e-01  1.7529850977010092e-01  1.6986856171002945e-01  1.6455088846959307e-01  1.5925110808561407e-01  1.5386221989328935e-01  1.4826090845204018e-01  1.4230255190814806e-01  1.3581427477509064e-01  1.2858494317335395e-01  1.2035019755184041e-01  1.1076915251498112e-01  9.9386907661483490e-02  8.5574303835892512e-02  6.8443830588980625e-02  4.6828757058159066e-02  1.9998666693333080e-02  1.0000000000000000e+00  9.4029364323563691e-01  8.8434559866393736e-01  8.3192839997462353e-01  7.8282938344496311e-01  7.3684923066463615e-01  6.9380095676995501e-01  6.5350909208717289e-01  6.1580895144146142e-01  5.8054595453068525e-01  5.4757498489655043e-01  5.1675978250520238e-01  4.8797236706130198e-01  4.6109248968529365e-01  4.3600711064295744e-01  4.1260990076586496e-01  3.9080076412823322e-01  3.7048537946472615e-01  3.5157475772012198e-01  3.3398481300587424e-01  3.1763594408965934e-01  3.0245262335038997e-01  2.8836298987960707e-01  2.7529844308473128e-01  2.6319323273033862e-01  2.5198404081470555e-01  2.4160954998645734e-01  2.3200999231508845e-01  2.2312667107839951e-01  2.1490144673619702e-01  2.0727617630784151e-01  2.0019209280073147e-01  1.9358910792064452e-01  1.8740501670905785e-01  1.8157457652956463e-01  1.7602842428401691e-01  1.7069178387886957e-01  1.6548289931060645e-01  1.6031110513974742e-01  1.5507441249459097e-01  1.4965644097910893e-01  1.4392246051573676e-01  1.3771422129472735e-01  1.3084316196556930e-01  1.2308158315153711e-01  1.1415178469615325e-01  1.0371512197856700e-01  9.1370103593091181e-02  7.6692019781709891e-02  5.9413739848231110e-02  3.9989334186634161e-02  1.0000000000000000e+00  9.4029708013074387e-01  8.8435371130732132e-01  8.3194242511333016e-01  7.8285028331633411e-01  7.3687775083592766e-01  6.9383772499333907e-01  6.5355469298833069e-01  6.1586397545958149e-01  5.8061102987573465e-01  5.4765079973698039e-01  5.1684710193659456e-01  4.8807204755495925e-01  4.6120549263591887e-01  4.3613451604315073e-01  4.1275292172377570e-01  3.9096076279192343e-01  3.7066388485723978e-01  3.5177348598922537e-01  3.3420569063576189e-01  3.1788113470249479e-01  3.0272455884367483e-01  2.8866440680621697e-01  2.7563242539582261e-01  2.6356326228228377e-01  2.5239405741165011e-01  2.4206402322130643e-01  2.3251400812852546e-01  2.2368603684251182e-01  2.1552281988067545e-01  2.0796722318182270e-01  2.0096168681120991e-01  1.9444757932779902e-01  1.8836447128470929e-01  1.8264930738010526e-01  1.7723545176701713e-01  1.7205157478667196e-01  1.6702034186866010e-01  1.6205685693885008e-01  1.5706680496429409e-01  1.5194423577136140e-01  1.4656894576447699e-01  1.4080347494049442e-01  1.3448991508072325e-01  1.2744719274187749e-01  1.1947064952078071e-01  1.1033848527686536e-01  9.9835710303798633e-02  8.7818015726139592e-02  7.4353237543157424e-02  5.9964006479444588e-02  1.0000000000000000e+00  9.4030464866557895e-01  8.8436945401229494e-01  8.3196715439928226e-01  7.8288481175331492e-01  7.3692284651701057e-01  6.9389413196909167e-01  6.5362316627883943e-01  6.1594531354123427e-01  5.8070610142027590e-01  5.4776056562954245e-01  5.1697263435184870e-01  4.8821454764615208e-01  4.6136630802764023e-01  4.3631515903413048e-01  4.1295508892811400e-01  3.9118635685730219e-01  3.7091503887520555e-01  3.5205259124064542e-01  3.3451542838632564e-01  3.1822451287693904e-01  3.0310495456652414e-01  2.8908561600916427e-01  2.7609872097033716e-01  2.6407946261964249e-01  2.5296560764834292e-01  2.4269709213372034e-01  2.3321560445067469e-01  2.2446414989069549e-01  2.1638659086887549e-01  2.0892715566043987e-01  2.0202990749297967e-01  1.9563816452604249e-01  1.8969385980448605e-01  1.8413682877297383e-01  1.7890401062414776e-01  1.7392854914427414e-01  1.6913877990571713e-01  1.6445709584926813e-01  1.5979869695318560e-01  1.5507026070356986e-01  1.5016863619209306e-01  1.4497980089061119e-01  1.3937859337550079e-01  1.3323027381504876e-01  1.2639598163027169e-01  1.1874594666164841e-01  1.1018697967195165e-01  1.0071314798183661e-01  9.0484827574215790e-02  7.9914693969172695e-02  1.0000000000000000e+00  9.4031577601328564e-01  8.8439207968048261e-01  8.3200187648270041e-01  7.8293234121525657e-01  7.3698395674461858e-01  6.9396965137200028e-01  6.5371399088356275e-01  6.1605242638728275e-01  5.8083059316645924e-01  5.4790365471379043e-01  5.1713568669768395e-01  4.8839909647279733e-01  4.6157407445205101e-01  4.3654807414693964e-01  4.1321531799890926e-01  3.9147632631896823e-01  3.7123746676453978e-01  3.5241052183632027e-01  3.3491227188748623e-01  3.1866409110996036e-01  3.0359155390028070e-01  2.8962404891092147e-01  2.7669439796005912e-01  2.6473847680122198e-01  2.5369483454120401e-01  2.4350430823774863e-01  2.3410962890736250e-01  2.2545501483153213e-01  2.1748574767749618e-01  2.1014772657211586e-01  2.0338699493343421e-01  1.9714923466660136e-01  1.9137922243736488e-01  1.8602024344865561e-01  1.8101345999853855e-01  1.7629723603491190e-01  1.7180642660754425e-01  1.6747165547930526e-01  1.6321863033235420e-01  1.5896759193242166e-01  1.5463307659525169e-01  1.5012431563157111e-01  1.4534684015615218e-01  1.4020625630080133e-01  1.3461574573358992e-01  1.2850957026272042e-01  1.2186529951740274e-01  1.1473629024224308e-01  1.0729005743551129e-01  9.9833416646828155e-02  1.0000000000000000e+00  9.4033013801024601e-01  8.8442108302679412e-01  8.3204602168514818e-01  7.8299229103713586e-01  7.3706050047672289e-01  6.9406369260454726e-01  6.5382655092972497e-01  6.1618465626189389e-01  5.8098378980186327e-01  5.4807927935102829e-01  5.1733538474642438e-01  4.8862471883430841e-01  4.6182770063151568e-01  4.3683203763594280e-01  4.1353223449232857e-01  3.9182912539667669e-01  3.7162942774359742e-01  3.5284531459733121e-01  3.3539400360820582e-01  3.1919736000789178e-01  3.0418151130300458e-01  2.9027647125006739e-01  2.7741577063795786e-01  2.6553609232957698e-01  2.5457690792709720e-01  2.4448011333234501e-01  2.3518966038860156e-01  2.2665118173406884e-01  2.1881160600646168e-01  2.1161876067165628e-01  2.0502096010310569e-01  1.9896657726850409e-01  1.9340359873778395e-01  1.8827916511889881e-01  1.8353910311214930e-01  1.7912746220951428e-01  1.7498608035390806e-01  1.7105422132380824e-01  1.6726835646676705e-01  1.6356221112822433e-01  1.5986727099970963e-01  1.5611405758428926e-01  1.5223464653709382e-01  1.4816711763225834e-01  1.4386284860362014e-01  1.3929764621839433e-01  1.3448726737855762e-01  1.2950618496430455e-01  1.2450454488156239e-01  1.1971220728891938e-01  1.0000000000000000e+00  9.4034751490555746e-01  8.8445608181409907e-01  8.3209910626167172e-01  7.8306411444823054e-01  7.3715188341010229e-01  6.9417561412762718e-01  6.5396014985059581e-01  6.1634124005738700e-01  5.8116484857104045e-01  5.4828650321916950e-01  5.1757068396454287e-01  4.8889024637471190e-01  4.6212587742261396e-01  4.3716558078906437e-01  4.1390418901315557e-01  3.9224289998582323e-01  3.7208883540061882e-01  3.5335461886625080e-01  3.3595797145195166e-01  3.1982132248367579e-01  3.0487143344089301e-01  2.9103903282489729e-01  2.7825845988552356e-01  2.6646731511118482e-01  2.5560611541751904e-01  2.4561795202792727e-01  2.3644814914786308e-01  2.2804392172856178e-01  2.2035403094754000e-01  2.1332843658230499e-01  2.0691794634106991e-01  2.0107386362294613e-01  1.9574763738743059e-01  1.9089052123801814e-01  1.8645325409771549e-01  1.8238578291466698e-01  1.7863706006357266e-01  1.7515496647604883e-01  1.7188643873549644e-01  1.6877791778679932e-01  1.6577629203376107e-01  1.6283058015843094e-01  1.5989468418212519e-01  1.5693161935310859e-01  1.5391963627887612e-01  1.5086046863224123e-01  1.4778935260943782e-01  1.4478520508505668e-01  1.4197734018011712e-01  1.3954311464423649e-01  1.0000000000000000e+00  9.4036773325633127e-01  8.8449675434599206e-01  8.3216069196018472e-01  7.8314728086199803e-01  7.3725749527891338e-01  6.9430472866258530e-01  6.5411401909228362e-01  6.1652131933025234e-01  5.8137280980565154e-01  5.4852425219422840e-01  5.1784038092649887e-01  4.8919432985364736e-01  4.6246709133820535e-01  4.3754700514246636e-01  4.1432927461571201e-01  3.9271550780785824e-01  3.7261328125202842e-01  3.5393572425926056e-01  3.3660112165636996e-01  3.2053253297607948e-01  3.0565742618143832e-01  2.9190732408004649e-01  2.7921746166530498e-01  2.6752645272209624e-01  2.5677596416730936e-01  2.4691039678172200e-01  2.3787657125794384e-01  2.2962341888108379e-01  2.2210167673458994e-01  2.1526358816992910e-01  2.0906261052021552e-01  2.0345313385388158e-01  1.9839021721139052e-01  1.9382935260916540e-01  1.8972627263792607e-01  1.8603682542025154e-01  1.8271695193396548e-01  1.7972281636952228e-01  1.7701116146504370e-01  1.7453998852646127e-01  1.7226969568867145e-01  1.7016484421281405e-01  1.6819675049155605e-01  1.6634709696392422e-01  1.6461267302449542e-01  1.6301112517401969e-01  1.6158712676054909e-01  1.6041762854751382e-01  1.5961397182652010e-01  1.5931820661424598e-01  1.0000000000000000e+00  9.4039064006188211e-01  8.8454280648330286e-01  8.3223036003485351e-01  7.8324126107961434e-01  7.3737670472664518e-01  6.9445030468475188e-01  6.5428732363528186e-01  6.1672394818474385e-01  5.8160660629892391e-01  5.4879132488159454e-01  5.1814312499516846e-01  4.8953545216077737e-01  4.6284963920095762e-01  4.3797439916717301e-01  4.1480534599986929e-01  3.9324454068315662e-01  3.7320006077023354e-01  3.5458559126570999e-01  3.3732003495722912e-01  3.2132714039387139e-01  3.0653514581736802e-01  2.9287643747069697e-01  2.8028722084610191e-01  2.6870720360301859e-01  2.5807928910229966e-01  2.4834927978909024e-01  2.3946559004393650e-01  2.3137896865331883e-01  2.2404223178645405e-01  2.1741000838715313e-01  2.1143850131071446e-01  2.0608526950999595e-01  2.0130903930850810e-01  1.9706955656335043e-01  1.9332749666311591e-01  1.9004445624242158e-01  1.8718305967928772e-01  1.8470722526435307e-01  1.8258265048759112e-01  1.8077759251186304e-01  1.7926403630046348e-01  1.7801935367359883e-01  1.7702855122519998e-01  1.7628716530465519e-01  1.7580476096268050e-01  1.7560879663986473e-01  1.7574830713097711e-01  1.7629646575532817e-01  1.7735076077321335e-01  1.7902957342582418e-01  1.0000000000000000e+00  9.4041609029653828e-01  8.8459395393516393e-01  8.3230769540922167e-01  7.8334551686457710e-01  7.3750885477541150e-01  6.9461156680745362e-01  6.5447916601908140e-01  6.1694809990728772e-01  5.8186507189650583e-01  5.4908640284730581e-01  5.1847743013110770e-01  4.8991194182082048e-01  4.6327164359322520e-01  4.3844565601833785e-01  4.1533004001169793e-01  3.9382734833760080e-01  3.7384620116846107e-01  3.5530088382516828e-01  3.3811096494574888e-01  3.2220093345753470e-01  3.0749985286610843e-01  2.9394103152946732e-01  2.8146170776755708e-01  2.7000274887825132e-01  2.5950836340791311e-01  2.4992582638046235e-01  2.4120521765355574e-01  2.3329917418425572e-01  2.2616265780274603e-01  2.1975274118147520e-01  2.1402841613996718e-01  2.0895043035920088e-01  2.0448116113900730e-01  2.0058453818960670e-01  1.9722603179330780e-01  1.9437272818130444e-01  1.9199352074357670e-01  1.9005945362418231e-01  1.8854426281539421e-01  1.8742516770450485e-01  1.8668397040108631e-01  1.8630851615068739e-01  1.8629454778732751e-01  1.8664793923640977e-01  1.8738720443684878e-01  1.8854603921816787e-01  1.9017547113831099e-01  1.9234500863423248e-01  1.9514209477724512e-01  1.9866933079506122e-01  1.0000000000000000e+00  9.4044394057084313e-01  8.8464991264006576e-01  8.3239227738365784e-01  7.8345949436074314e-01  7.3765325985270713e-01  6.9478769633139081e-01  6.5468858991660173e-01  6.1719267303173520e-01  5.8214694965436098e-01  5.4940806065295911e-01  5.1884168676037301e-01  4.9032198679438038e-01  4.6373106881074388e-01  4.3895849196634368e-01  4.1590079697637616e-01  3.9446106316596452e-01  3.7454849023998465e-01  3.5607800302438630e-01  3.3896987756879926e-01  3.2314938714666991e-01  3.0854646685041509e-01  2.9509539566204696e-01  2.8273449509375292e-01  2.7140584375026688e-01  2.6105500748161442e-01  2.5163078519168031e-01  2.4308497087186048e-01  2.3537213307410490e-01  2.2844941386740086e-01  2.2227635039039434e-01  2.1681472348636174e-01  2.1202843966249882e-01  2.0788345483875467e-01  2.0434775112595513e-01  2.0139138126073464e-01  1.9898659932753571e-01  1.9710810088889558e-01  1.9573340025618211e-01  1.9484337657940337e-01  1.9442302226745831e-01  1.9446242454617629e-01  1.9495800003012037e-01  1.9591397799705840e-01  1.9734408483038568e-01  1.9927331526394709e-01  2.0173958649530216e-01  2.0479497214686082e-01  2.0850613791866940e-01  2.1295360584243730e-01  2.1822962308086932e-01  1.0000000000000000e+00  9.4047404583962857e-01  8.8471039359240045e-01  8.3248367446481786e-01  7.8358262042799642e-01  7.3780920444872167e-01  6.9497783245848921e-01  6.5491458380669310e-01  6.1745649725786467e-01  5.8245089981205223e-01  5.4975477577864384e-01  5.1923417364842051e-01  4.9076364841007614e-01  4.6422573705955522e-01  4.3951046515918818e-01  4.1651488242015133e-01  3.9514262540588019e-01  3.7530350558529185e-01  3.5691312110351797e-01  3.3989249078603628e-01  3.2416770905284037e-01  3.0966962059743575e-01  2.9633351388761525e-01  2.8409883277986736e-01  2.7290890581808286e-01  2.6271069312412970e-01  2.5345455120062121e-01  2.4509401647684353e-01  2.3758560906423620e-01  2.3088865898023084e-01  2.2496515808598669e-01  2.1977964220582236e-01  2.1529910939565033e-01  2.1149298213973350e-01  2.0833312339534452e-01  2.0579391884715131e-01  2.0385244037214523e-01  2.0248870831047650e-01  2.0168607222759097e-01  2.0143173064922476e-01  2.0171740850593867e-01  2.0254020492176397e-01  2.0390361112649827e-01  2.0581867593814360e-01  2.0830526215988002e-01  2.1139329109062968e-01  2.1512381848048109e-01  2.1954973576536005e-01  2.2473586724670316e-01  2.3075826629956780e-01  2.3770262642713458e-01  1.0000000000000000e+00  9.4050625773471708e-01  8.8477510020982097e-01  8.3258144179285765e-01  7.8371430106480411e-01  7.3797594316332593e-01  6.9518107427250586e-01  6.5515608497178313e-01  6.1773833943792678e-01  5.8277550771844533e-01  5.5012493847233546e-01  5.1965306972041025e-01  4.9123487527721721e-01  4.6475334466037038e-01  4.4009899439715727e-01  4.1716940877586017e-01  3.9586880822192977e-01  3.7610764361825050e-01  3.5780221503573306e-01  3.4087431349772618e-01  3.2525088457260165e-01  3.1086371277800651e-01  2.9764912599373244e-01  2.8554771932569595e-01  2.7450409815071636e-01  2.6446664041243489e-01  2.5538727864697242e-01  2.4722130270952603e-01  2.3992718476924066e-01  2.3346642886058785e-01  2.2780344814700310e-01  2.2290547408665606e-01  2.1874250290416336e-01  2.1528728616419507e-01  2.1251537378363819e-01  2.1040521943048013e-01  2.0893835978435032e-01  2.0809968030196455e-01  2.0787778049728695e-01  2.0826545064227800e-01  2.0926026828091554e-01  2.1086531582090617e-01  2.1309000836402184e-01  2.1595100266163847e-01  2.1947313324388065e-01  2.2369029181171210e-01  2.2864613551152982e-01  2.3439448765222634e-01  2.4099929386644237e-01  2.4853403186610010e-01  2.5708055189215512e-01  1.0000000000000000e+00  9.4054042381435676e-01  8.8484372720604587e-01  8.3268512022056640e-01  7.8385392128196607e-01  7.3815270183335502e-01  6.9539648341057769e-01  6.5541198386459021e-01  6.1803690970479896e-01  5.8311929175695421e-01  5.5051686151792745e-01  5.2009646575375035e-01  4.9173351703540780e-01  4.6531147804659467e-01  4.4072137763437313e-01  4.1786135671110353e-01  3.9663624225665423e-01  3.7695714781586293e-01  3.5874109903965634e-01  3.4191068298178345e-01  3.2639372004016043e-01  3.1212295762661829e-01  2.9903578486673660e-01  2.8707396787898631e-01  2.7618340546736803e-01  2.6631390539332556e-01  2.5741898178137562e-01  2.4945567467019653e-01  2.4238439325894487e-01  2.3616878502890781e-01  2.3077563365239637e-01  2.2617478943761385e-01  2.2233913699302543e-01  2.1924460580212093e-01  2.1687023042448705e-01  2.1519826798166780e-01  2.1421438128058651e-01  2.1390789611715852e-01  2.1427214061603927e-01  2.1530487239273419e-01  2.1700879523497379e-01  2.1939216017816920e-01  2.2246943564649266e-01  2.2626201743744856e-01  2.3079893221421022e-01  2.3611746967038560e-01  2.4226366241959971e-01  2.4929252485991563e-01  2.5726797010161123e-01  2.6626235395834569e-01  2.7635564856411376e-01  1.0000000000000000e+00  9.4057638735288973e-01  8.8491596038187725e-01  8.3279423645246542e-01  7.8400084596800323e-01  7.3833867945377030e-01  6.9562308728530264e-01  6.5568112879493723e-01  6.1835086773050252e-01  5.8348071125627576e-01  5.5092878987921934e-01  5.2056237585710508e-01  4.9225733780469622e-01  4.6589762936489781e-01  4.4137480995808709e-01  4.1858759576813753e-01  3.9744143927069886e-01  3.7784813576053755e-01  3.5972545549258650e-01  3.4299680021850065e-01  3.2759088308014300e-01  3.1344143101732663e-01  3.0048690906380787e-01  2.8867026614822100e-01  2.7793870229136680e-01  2.6824345740463834e-01  2.5953962225343263e-01  2.5178597256112040e-01  2.4494482769961881e-01  2.3898193594574041e-01  2.3386638887789168e-01  2.2957056813761542e-01  2.2607012846517890e-01  2.2334402159990760e-01  2.2137456624943247e-01  2.2014756977515212e-01  2.1965250736191422e-01  2.1988276402415702e-01  2.2083594356458763e-01  2.2251424619448384e-01  2.2492491255639779e-01  2.2808072599597662e-01  2.3200055689602941e-01  2.3670992284833792e-01  2.4224152714903496e-01  2.4863572721729477e-01  2.5594087679573285e-01  2.6421348488191093e-01  2.7351814416994347e-01  2.8392720498957197e-01  2.9552020666133955e-01  1.0000000000000000e+00  9.4061398745837521e-01  8.8499147698702396e-01  8.3290830386626091e-01  7.8415442142010350e-01  7.3853305065512209e-01  6.9585988270630106e-01  6.5596233084832234e-01  6.1867882905951599e-01  5.8385817433715115e-01  5.5135891015662142e-01  5.2104874864561179e-01  4.9280402921076366e-01  4.6650921151238001e