<?xml version="1.0"?>
<VTKFile type="UnstructuredGrid"  version="0.1"  >
<UnstructuredGrid>
<Piece  NumberOfPoints="2601" NumberOfCells="5000">
<Points>
<DataArray  type="Float64"  NumberOfComponents="3"  format="ascii">0 0 0  0.02 0 0  0.04 0 0  0.06 0 0  0.08 0 0  0.1 0 0  0.12 0 0  0.14 0 0  0.16 0 0  0.18 0 0  0.2 0 0  0.22 0 0  0.24 0 0  0.26 0 0  0.28 0 0  0.3 0 0  0.32 0 0  0.34 0 0  0.36 0 0  0.38 0 0  0.4 0 0  0.42 0 0  0.44 0 0  0.46 0 0  0.48 0 0  0.5 0 0  0.52 0 0  0.54 0 0  0.5600000000000001 0 0  0.58 0 0  0.6 0 0  0.62 0 0  0.64 0 0  0.66 0 0  0.68 0 0  0.7 0 0  0.72 0 0  0.74 0 0  0.76 0 0  0.78 0 0  0.8 0 0  0.82 0 0  0.84 0 0  0.86 0 0  0.88 0 0  0.9 0 0  0.92 0 0  0.9399999999999999 0 0  0.96 0 0  0.98 0 0  1 0 0  0 0.02 0  0.02 0.02 0  0.04 0.02 0  0.06 0.02 0  0.08 0.02 0  0.1 0.02 0  0.12 0.02 0  0.14 0.02 0  0.16 0.02 0  0.18 0.02 0  0.2 0.02 0  0.22 0.02 0  0.24 0.02 0  0.26 0.02 0  0.28 0.02 0  0.3 0.02 0  0.32 0.02 0  0.34 0.02 0  0.36 0.02 0  0.38 0.02 0  0.4 0.02 0  0.42 0.02 0  0.44 0.02 0  0.46 0.02 0  0.48 0.02 0  0.5 0.02 0  0.52 0.02 0  0.54 0.02 0  0.5600000000000001 0.02 0  0.58 0.02 0  0.6 0.02 0  0.62 0.02 0  0.64 0.02 0  0.66 0.02 0  0.68 0.02 0  0.7 0.02 0  0.72 0.02 0  0.74 0.02 0  0.76 0.02 0  0.78 0.02 0  0.8 0.02 0  0.82 0.02 0  0.84 0.02 0  0.86 0.02 0  0.88 0.02 0  0.9 0.02 0  0.92 0.02 0  0.9399999999999999 0.02 0  0.96 0.02 0  0.98 0.02 0  1 0.02 0  0 0.04 0  0.02 0.04 0  0.04 0.04 0  0.06 0.04 0  0.08 0.04 0  0.1 0.04 0  0.12 0.04 0  0.14 0.04 0  0.16 0.04 0  0.18 0.04 0  0.2 0.04 0  0.22 0.04 0  0.24 0.04 0  0.26 0.04 0  0.28 0.04 0  0.3 0.04 0  0.32 0.04 0  0.34 0.04 0  0.36 0.04 0  0.38 0.04 0  0.4 0.04 0  0.42 0.04 0  0.44 0.04 0  0.46 0.04 0  0.48 0.04 0  0.5 0.04 0  0.52 0.04 0  0.54 0.04 0  0.5600000000000001 0.04 0  0.58 0.04 0  0.6 0.04 0  0.62 0.04 0  0.64 0.04 0  0.66 0.04 0  0.68 0.04 0  0.7 0.04 0  0.72 0.04 0  0.74 0.04 0  0.76 0.04 0  0.78 0.04 0  0.8 0.04 0  0.82 0.04 0  0.84 0.04 0  0.86 0.04 0  0.88 0.04 0  0.9 0.04 0  0.92 0.04 0  0.9399999999999999 0.04 0  0.96 0.04 0  0.98 0.04 0  1 0.04 0  0 0.06 0  0.02 0.06 0  0.04 0.06 0  0.06 0.06 0  0.08 0.06 0  0.1 0.06 0  0.12 0.06 0  0.14 0.06 0  0.16 0.06 0  0.18 0.06 0  0.2 0.06 0  0.22 0.06 0  0.24 0.06 0  0.26 0.06 0  0.28 0.06 0  0.3 0.06 0  0.32 0.06 0  0.34 0.06 0  0.36 0.06 0  0.38 0.06 0  0.4 0.06 0  0.42 0.06 0  0.44 0.06 0  0.46 0.06 0  0.48 0.06 0  0.5 0.06 0  0.52 0.06 0  0.54 0.06 0  0.5600000000000001 0.06 0  0.58 0.06 0  0.6 0.06 0  0.62 0.06 0  0.64 0.06 0  0.66 0.06 0  0.68 0.06 0  0.7 0.06 0  0.72 0.06 0  0.74 0.06 0  0.76 0.06 0  0.78 0.06 0  0.8 0.06 0  0.82 0.06 0  0.84 0.06 0  0.86 0.06 0  0.88 0.06 0  0.9 0.06 0  0.92 0.06 0  0.9399999999999999 0.06 0  0.96 0.06 0  0.98 0.06 0  1 0.06 0  0 0.08 0  0.02 0.08 0  0.04 0.08 0  0.06 0.08 0  0.08 0.08 0  0.1 0.08 0  0.12 0.08 0  0.14 0.08 0  0.16 0.08 0  0.18 0.08 0  0.2 0.08 0  0.22 0.08 0  0.24 0.08 0  0.26 0.08 0  0.28 0.08 0  0.3 0.08 0  0.32 0.08 0  0.34 0.08 0  0.36 0.08 0  0.38 0.08 0  0.4 0.08 0  0.42 0.08 0  0.44 0.08 0  0.46 0.08 0  0.48 0.08 0  0.5 0.08 0  0.52 0.08 0  0.54 0.08 0  0.5600000000000001 0.08 0  0.58 0.08 0  0.6 0.08 0  0.62 0.08 0  0.64 0.08 0  0.66 0.08 0  0.68 0.08 0  0.7 0.08 0  0.72 0.08 0  0.74 0.08 0  0.76 0.08 0  0.78 0.08 0  0.8 0.08 0  0.82 0.08 0  0.84 0.08 0  0.86 0.08 0  0.88 0.08 0  0.9 0.08 0  0.92 0.08 0  0.9399999999999999 0.08 0  0.96 0.08 0  0.98 0.08 0  1 0.08 0  0 0.1 0  0.02 0.1 0  0.04 0.1 0  0.06 0.1 0  0.08 0.1 0  0.1 0.1 0  0.12 0.1 0  0.14 0.1 0  0.16 0.1 0  0.18 0.1 0  0.2 0.1 0  0.22 0.1 0  0.24 0.1 0  0.26 0.1 0  0.28 0.1 0  0.3 0.1 0  0.32 0.1 0  0.34 0.1 0  0.36 0.1 0  0.38 0.1 0  0.4 0.1 0  0.42 0.1 0  0.44 0.1 0  0.46 0.1 0  0.48 0.1 0  0.5 0.1 0  0.52 0.1 0  0.54 0.1 0  0.5600000000000001 0.1 0  0.58 0.1 0  0.6 0.1 0  0.62 0.1 0  0.64 0.1 0  0.66 0.1 0  0.68 0.1 0  0.7 0.1 0  0.72 0.1 0  0.74 0.1 0  0.76 0.1 0  0.78 0.1 0  0.8 0.1 0  0.82 0.1 0  0.84 0.1 0  0.86 0.1 0  0.88 0.1 0  0.9 0.1 0  0.92 0.1 0  0.9399999999999999 0.1 0  0.96 0.1 0  0.98 0.1 0  1 0.1 0  0 0.12 0  0.02 0.12 0  0.04 0.12 0  0.06 0.12 0  0.08 0.12 0  0.1 0.12 0  0.12 0.12 0  0.14 0.12 0  0.16 0.12 0  0.18 0.12 0  0.2 0.12 0  0.22 0.12 0  0.24 0.12 0  0.26 0.12 0  0.28 0.12 0  0.3 0.12 0  0.32 0.12 0  0.34 0.12 0  0.36 0.12 0  0.38 0.12 0  0.4 0.12 0  0.42 0.12 0  0.44 0.12 0  0.46 0.12 0  0.48 0.12 0  0.5 0.12 0  0.52 0.12 0  0.54 0.12 0  0.5600000000000001 0.12 0  0.58 0.12 0  0.6 0.12 0  0.62 0.12 0  0.64 0.12 0  0.66 0.12 0  0.68 0.12 0  0.7 0.12 0  0.72 0.12 0  0.74 0.12 0  0.76 0.12 0  0.78 0.12 0  0.8 0.12 0  0.82 0.12 0  0.84 0.12 0  0.86 0.12 0  0.88 0.12 0  0.9 0.12 0  0.92 0.12 0  0.9399999999999999 0.12 0  0.96 0.12 0  0.98 0.12 0  1 0.12 0  0 0.14 0  0.02 0.14 0  0.04 0.14 0  0.06 0.14 0  0.08 0.14 0  0.1 0.14 0  0.12 0.14 0  0.14 0.14 0  0.16 0.14 0  0.18 0.14 0  0.2 0.14 0  0.22 0.14 0  0.24 0.14 0  0.26 0.14 0  0.28 0.14 0  0.3 0.14 0  0.32 0.14 0  0.34 0.14 0  0.36 0.14 0  0.38 0.14 0  0.4 0.14 0  0.42 0.14 0  0.44 0.14 0  0.46 0.14 0  0.48 0.14 0  0.5 0.14 0  0.52 0.14 0  0.54 0.14 0  0.5600000000000001 0.14 0  0.58 0.14 0  0.6 0.14 0  0.62 0.14 0  0.64 0.14 0  0.66 0.14 0  0.68 0.14 0  0.7 0.14 0  0.72 0.14 0  0.74 0.14 0  0.76 0.14 0  0.78 0.14 0  0.8 0.14 0  0.82 0.14 0  0.84 0.14 0  0.86 0.14 0  0.88 0.14 0  0.9 0.14 0  0.92 0.14 0  0.9399999999999999 0.14 0  0.96 0.14 0  0.98 0.14 0  1 0.14 0  0 0.16 0  0.02 0.16 0  0.04 0.16 0  0.06 0.16 0  0.08 0.16 0  0.1 0.16 0  0.12 0.16 0  0.14 0.16 0  0.16 0.16 0  0.18 0.16 0  0.2 0.16 0  0.22 0.16 0  0.24 0.16 0  0.26 0.16 0  0.28 0.16 0  0.3 0.16 0  0.32 0.16 0  0.34 0.16 0  0.36 0.16 0  0.38 0.16 0  0.4 0.16 0  0.42 0.16 0  0.44 0.16 0  0.46 0.16 0  0.48 0.16 0  0.5 0.16 0  0.52 0.16 0  0.54 0.16 0  0.5600000000000001 0.16 0  0.58 0.16 0  0.6 0.16 0  0.62 0.16 0  0.64 0.16 0  0.66 0.16 0  0.68 0.16 0  0.7 0.16 0  0.72 0.16 0  0.74 0.16 0  0.76 0.16 0  0.78 0.16 0  0.8 0.16 0  0.82 0.16 0  0.84 0.16 0  0.86 0.16 0  0.88 0.16 0  0.9 0.16 0  0.92 0.16 0  0.9399999999999999 0.16 0  0.96 0.16 0  0.98 0.16 0  1 0.16 0  0 0.18 0  0.02 0.18 0  0.04 0.18 0  0.06 0.18 0  0.08 0.18 0  0.1 0.18 0  0.12 0.18 0  0.14 0.18 0  0.16 0.18 0  0.18 0.18 0  0.2 0.18 0  0.22 0.18 0  0.24 0.18 0  0.26 0.18 0  0.28 0.18 0  0.3 0.18 0  0.32 0.18 0  0.34 0.18 0  0.36 0.18 0  0.38 0.18 0  0.4 0.18 0  0.42 0.18 0  0.44 0.18 0  0.46 0.18 0  0.48 0.18 0  0.5 0.18 0  0.52 0.18 0  0.54 0.18 0  0.5600000000000001 0.18 0  0.58 0.18 0  0.6 0.18 0  0.62 0.18 0  0.64 0.18 0  0.66 0.18 0  0.68 0.18 0  0.7 0.18 0  0.72 0.18 0  0.74 0.18 0  0.76 0.18 0  0.78 0.18 0  0.8 0.18 0  0.82 0.18 0  0.84 0.18 0  0.86 0.18 0  0.88 0.18 0  0.9 0.18 0  0.92 0.18 0  0.9399999999999999 0.18 0  0.96 0.18 0  0.98 0.18 0  1 0.18 0  0 0.2 0  0.02 0.2 0  0.04 0.2 0  0.06 0.2 0  0.08 0.2 0  0.1 0.2 0  0.12 0.2 0  0.14 0.2 0  0.16 0.2 0  0.18 0.2 0  0.2 0.2 0  0.22 0.2 0  0.24 0.2 0  0.26 0.2 0  0.28 0.2 0  0.3 0.2 0  0.32 0.2 0  0.34 0.2 0  0.36 0.2 0  0.38 0.2 0  0.4 0.2 0  0.42 0.2 0  0.44 0.2 0  0.46 0.2 0  0.48 0.2 0  0.5 0.2 0  0.52 0.2 0  0.54 0.2 0  0.5600000000000001 0.2 0  0.58 0.2 0  0.6 0.2 0  0.62 0.2 0  0.64 0.2 0  0.66 0.2 0  0.68 0.2 0  0.7 0.2 0  0.72 0.2 0  0.74 0.2 0  0.76 0.2 0  0.78 0.2 0  0.8 0.2 0  0.82 0.2 0  0.84 0.2 0  0.86 0.2 0  0.88 0.2 0  0.9 0.2 0  0.92 0.2 0  0.9399999999999999 0.2 0  0.96 0.2 0  0.98 0.2 0  1 0.2 0  0 0.22 0  0.02 0.22 0  0.04 0.22 0  0.06 0.22 0  0.08 0.22 0  0.1 0.22 0  0.12 0.22 0  0.14 0.22 0  0.16 0.22 0  0.18 0.22 0  0.2 0.22 0  0.22 0.22 0  0.24 0.22 0  0.26 0.22 0  0.28 0.22 0  0.3 0.22 0  0.32 0.22 0  0.34 0.22 0  0.36 0.22 0  0.38 0.22 0  0.4 0.22 0  0.42 0.22 0  0.44 0.22 0  0.46 0.22 0  0.48 0.22 0  0.5 0.22 0  0.52 0.22 0  0.54 0.22 0  0.5600000000000001 0.22 0  0.58 0.22 0  0.6 0.22 0  0.62 0.22 0  0.64 0.22 0  0.66 0.22 0  0.68 0.22 0  0.7 0.22 0  0.72 0.22 0  0.74 0.22 0  0.76 0.22 0  0.78 0.22 0  0.8 0.22 0  0.82 0.22 0  0.84 0.22 0  0.86 0.22 0  0.88 0.22 0  0.9 0.22 0  0.92 0.22 0  0.9399999999999999 0.22 0  0.96 0.22 0  0.98 0.22 0  1 0.22 0  0 0.24 0  0.02 0.24 0  0.04 0.24 0  0.06 0.24 0  0.08 0.24 0  0.1 0.24 0  0.12 0.24 0  0.14 0.24 0  0.16 0.24 0  0.18 0.24 0  0.2 0.24 0  0.22 0.24 0  0.24 0.24 0  0.26 0.24 0  0.28 0.24 0  0.3 0.24 0  0.32 0.24 0  0.34 0.24 0  0.36 0.24 0  0.38 0.24 0  0.4 0.24 0  0.42 0.24 0  0.44 0.24 0  0.46 0.24 0  0.48 0.24 0  0.5 0.24 0  0.52 0.24 0  0.54 0.24 0  0.5600000000000001 0.24 0  0.58 0.24 0  0.6 0.24 0  0.62 0.24 0  0.64 0.24 0  0.66 0.24 0  0.68 0.24 0  0.7 0.24 0  0.72 0.24 0  0.74 0.24 0  0.76 0.24 0  0.78 0.24 0  0.8 0.24 0  0.82 0.24 0  0.84 0.24 0  0.86 0.24 0  0.88 0.24 0  0.9 0.24 0  0.92 0.24 0  0.9399999999999999 0.24 0  0.96 0.24 0  0.98 0.24 0  1 0.24 0  0 0.26 0  0.02 0.26 0  0.04 0.26 0  0.06 0.26 0  0.08 0.26 0  0.1 0.26 0  0.12 0.26 0  0.14 0.26 0  0.16 0.26 0  0.18 0.26 0  0.2 0.26 0  0.22 0.26 0  0.24 0.26 0  0.26 0.26 0  0.28 0.26 0  0.3 0.26 0  0.32 0.26 0  0.34 0.26 0  0.36 0.26 0  0.38 0.26 0  0.4 0.26 0  0.42 0.26 0  0.44 0.26 0  0.46 0.26 0  0.48 0.26 0  0.5 0.26 0  0.52 0.26 0  0.54 0.26 0  0.5600000000000001 0.26 0  0.58 0.26 0  0.6 0.26 0  0.62 0.26 0  0.64 0.26 0  0.66 0.26 0  0.68 0.26 0  0.7 0.26 0  0.72 0.26 0  0.74 0.26 0  0.76 0.26 0  0.78 0.26 0  0.8 0.26 0  0.82 0.26 0  0.84 0.26 0  0.86 0.26 0  0.88 0.26 0  0.9 0.26 0  0.92 0.26 0  0.9399999999999999 0.26 0  0.96 0.26 0  0.98 0.26 0  1 0.26 0  0 0.28 0  0.02 0.28 0  0.04 0.28 0  0.06 0.28 0  0.08 0.28 0  0.1 0.28 0  0.12 0.28 0  0.14 0.28 0  0.16 0.28 0  0.18 0.28 0  0.2 0.28 0  0.22 0.28 0  0.24 0.28 0  0.26 0.28 0  0.28 0.28 0  0.3 0.28 0  0.32 0.28 0  0.34 0.28 0  0.36 0.28 0  0.38 0.28 0  0.4 0.28 0  0.42 0.28 0  0.44 0.28 0  0.46 0.28 0  0.48 0.28 0  0.5 0.28 0  0.52 0.28 0  0.54 0.28 0  0.5600000000000001 0.28 0  0.58 0.28 0  0.6 0.28 0  0.62 0.28 0  0.64 0.28 0  0.66 0.28 0  0.68 0.28 0  0.7 0.28 0  0.72 0.28 0  0.74 0.28 0  0.76 0.28 0  0.78 0.28 0  0.8 0.28 0  0.82 0.28 0  0.84 0.28 0  0.86 0.28
[...]
<PointData  Scalars="f_17"> 
<DataArray  type="Float64"  Name="f_17"  format="ascii">1.0000000000000000e+00  9.8923415711448737e-01  9.7846148020988433e-01  9.6767461064300986e-01  9.5686565629497866e-01  9.4602615103332877e-01  9.3514701920019971e-01  9.2421854070340648e-01  9.1323031545074307e-01  9.0217122658491244e-01  8.9102940214160131e-01  8.7979217477916427e-01  8.6844603921130636e-01  8.5697660693789235e-01  8.4536855781930498e-01  8.3360558797701712e-01  8.2167035342556971e-01  8.0954440874611167e-01  7.9720813999506834e-01  7.8464069089816968e-01  7.7181988120311518e-01  7.5872211584468552e-01  7.4532228330241723e-01  7.3159364118750325e-01  7.1750768666167530e-01  7.0303400873855848e-01  6.8814011880935599e-01  6.7279125481740998e-01  6.5695015330726425e-01  6.4057678199039036e-01  6.2362802335426104e-01  6.0605729697961497e-01  5.8781410430545500e-01  5.6884347411507041e-01  5.4908527927524964e-01  5.2847338409139599e-01  5.0693456518492219e-01  4.8438712397653022e-01  4.6073907040301670e-01  4.3588569606661043e-01  4.0970625334297622e-01  3.8205928149690899e-01  3.5277580237802603e-01  3.2164899342138231e-01  2.8841766302227495e-01  2.5273790236318394e-01  2.1412962743548530e-01  1.7186188148280390e-01  1.2466224097852985e-01  6.9829027939654731e-02  0.0000000000000000e+00  1.0000000000000000e+00  9.8923772987334235e-01  9.7846862026147796e-01  9.6768534517488491e-01  9.5688003316430059e-01  9.4604423638204116e-01  9.3516889728170627e-01  9.2424431433890220e-01  9.1326010675657265e-01  9.0220517788829657e-01  8.9106767707165668e-01  8.7983495954167601e-01  8.6849354406527979e-01  8.5702906789864619e-01  8.4542623861939459e-01  8.3366878232363018e-01  8.2173938760181964e-01  8.0961964461442615e-01  7.9728997847425720e-01  7.8472957600254867e-01  7.7191630475332884e-01  7.5882662298698467e-01  7.4543547900802498e-01  7.3171619794893139e-01  7.1764035366203205e-01  7.0317762284807250e-01  6.8829561786768256e-01  6.7295969380108878e-01  6.5713272417397306e-01  6.4077483825764003e-01  6.2384311084336930e-01  6.0629119268751830e-01  5.8806886613739850e-01  5.6912150534865347e-01  5.4938941334046665e-01  5.2880699789475916e-01  5.0730173338896523e-01  4.8479283346259650e-01  4.6118952563156212e-01  4.3638876617138023e-01  4.1027214869752254e-01  3.8270161899172550e-01  3.5351336683189821e-01  3.2250883645467959e-01  2.8944101488772145e-01  2.5399272690158559e-01  2.1574124191401500e-01  1.7410090487245442e-01  1.2824319082462574e-01  7.7082081511486683e-02  1.9998666693333080e-02  1.0000000000000000e+00  9.8924843764704407e-01  9.7849007725439163e-01  9.6771764492432544e-01  9.5692332157409665e-01  9.4609871195571005e-01  9.3523481218438642e-01  9.2432197612500333e-01  9.1334988063457156e-01  9.0230748948106676e-01  8.9118301568120417e-01  8.7996388195556841e-01  8.6863667896172458e-01  8.5718712092469496e-01  8.4559999823531817e-01  8.3385912652795346e-01  8.2194729167731395e-01  8.0984619006703462e-01  7.9753636337628753e-01  7.8499712700081237e-01  7.7220649106528494e-01  7.5914107278740861e-01  7.4577599871074585e-01  7.3208479502026791e-01  7.1803926377505556e-01  7.0360934241420692e-01  6.8876294328488286e-01  6.7346576916522116e-01  6.5768109975462385e-01  6.4136954280407832e-01  6.2448874185466086e-01  6.0699303029570117e-01  5.8883301843588454e-01  5.6995509620056251e-01  5.5030082849153883e-01  5.2980621253531612e-01  5.0840075576545185e-01  4.8600631755267115e-01  4.6253563638963363e-01  4.3789043307369163e-01  4.1195893620448237e-01  3.8461261495679877e-01  3.5570182540907125e-01  3.2504999922399913e-01  2.9244601618142674e-01  2.5763483691518441e-01  2.2030846266644527e-01  1.8010649488759542e-01  1.3665894006318791e-01  8.9770847864116793e-02  3.9989334186634161e-02  1.0000000000000000e+00  9.8926623891626442e-01  9.7852575779179196e-01  9.6777136462914637e-01  9.5699532444946034e-01  9.4618932808948386e-01  9.3534446020928019e-01  9.2445116634599145e-01  9.1349921887258800e-01  9.0247768166892739e-01  8.9137487326462861e-01  8.8017832817417119e-01  8.6887475610799936e-01  8.5744999870415517e-01  8.4588898337969587e-01  8.3417567384744029e-01  8.2229301677915023e-01  8.1022288401851139e-01  7.9794600965325813e-01  7.8544192114166689e-01  7.7268886354977817e-01  7.5966371578605985e-01  7.4634189751220481e-01  7.3269726515263522e-01  7.1870199510848354e-01  7.0432645188823539e-01  6.8953903837576369e-01  6.7430602483990698e-01  6.5859135251230772e-01  6.4235640657534721e-01  6.2555975214875237e-01  6.0815682526279846e-01  5.9009956875645209e-01  5.7133600041324961e-01  5.5180969729442475e-01  5.3145917598511716e-01  5.1021714320707789e-01  4.8800958499966385e-01  4.6475465592580112e-01  4.4036132423135976e-01  4.1472772929330654e-01  3.8773922605240496e-01  3.5926615703716497e-01  3.2916157775573207e-01  2.9725963707074921e-01  2.6337648090155280e-01  2.2731829198548054e-01  1.8890713282944302e-01  1.4804691265867126e-01  1.0486673557619147e-01  5.9964006479444588e-02  1.0000000000000000e+00  9.8929105557329144e-01  9.7857550222022738e-01  9.6784626136420193e-01  9.5709571408881911e-01  9.4631567031961772e-01  9.3549733747540686e-01  9.2463128833006636e-01  9.1370742787970938e-01  9.0271495900574927e-01  8.9164234670155451e-01  8.8047728060264463e-01  8.6920663553000665e-01  8.5781642972217031e-01  8.4629178039248987e-01  8.3461685620200954e-01  8.2277482618360975e-01  8.1074780458787432e-01  7.9851679104310258e-01  7.8606160532834746e-01  7.7336081594602779e-01  7.6039166154552973e-01  7.4712996408629173e-01  7.3355003243216887e-01  7.1962455483104348e-01  7.0532447844579438e-01  6.9061887375432451e-01  6.7547478121505011e-01  6.5985703708625365e-01  6.4372807467866089e-01  6.2704769659767579e-01  6.0977281268852535e-01  5.9185713744374702e-01  5.7325083961302847e-01  5.5390013578860120e-01  5.3374681909056465e-01  5.1272771430257091e-01  4.9077405304126509e-01  4.6781076904909530e-01  4.4375572898886817e-01  4.1851894714047039e-01  3.9200190088032133e-01  3.6409720261757716e-01  3.3468916027558798e-01  3.0365629715760595e-01  2.7087791387569743e-01  2.3624854098199807e-01  1.9970674445440234e-01  1.6128699755344639e-01  1.2119936243569077e-01  7.9914693969172695e-02  1.0000000000000000e+00  9.8932277636070864e-01  9.7863908635674846e-01  9.6794199604769171e-01  9.5722403415144619e-01  9.4647716204029775e-01  9.3569274329488239e-01  9.2486151257874616e-01  9.1397354362285554e-01  9.0301821611226019e-01  8.9198418125568812e-01  8.8085932580016724e-01  8.6963073422965509e-01  8.5828464885965683e-01  8.4680642750835355e-01  8.3518049838808017e-01  8.2339031181797984e-01  8.1141828830814988e-01  7.9924576250628832e-01  7.8685292242815807e-01  7.7421874331144225e-01  7.6132091533685875e-01  7.4813576434861562e-01  7.3463816457638886e-01  7.2080144221096154e-01  7.0659726851416116e-01  6.9199554095064453e-01  6.7696425061686383e-01  6.6146933401838226e-01  6.4547450702627895e-01  6.2894107865720306e-01  6.1182774222630376e-01  5.9409034151914342e-01  5.7568161009722596e-01  5.5655088300603806e-01  5.3664378254364242e-01  5.1590188433037765e-01  4.9426237837138515e-01  4.7165775505199964e-01  4.4801557316100954e-01  4.2325841494918309e-01  3.9730421697510176e-01  3.7006730985863945e-01  3.4146074300638002e-01  3.1140086128251931e-01  2.7981567651859240e-01  2.4665927085583614e-01  2.1193485124161587e-01  1.7572778280278778e-01  1.3824389146142033e-01  9.9833416646828155e-02  1.0000000000000000e+00  9.8936125854052936e-01  9.7871622346399534e-01  9.6805813580351396e-01  9.5737970266614214e-01  9.4667306832311193e-01  9.3592978490362622e-01  9.2514078249246146e-01  9.1429633843908509e-01  9.0338604568643244e-01  8.9239877992045358e-01  8.8132266532908887e-01  8.7014503874299054e-01  8.5885241191069950e-01  8.4743043163816134e-01  8.3586383749617876e-01  8.2413641676924942e-01  8.1223095628481545e-01  8.0012919072285482e-01  7.8781174696164036e-01  7.7525808396624862e-01  7.6244642767217274e-01  7.4935370025788151e-01  7.3595544313897521e-01  7.2222573295574999e-01  7.0813708977091117e-01  6.9366037665394820e-01  6.7876468981839566e-01  6.6341723852219381e-01  6.4758321407898034e-01  6.3122564762221256e-01  6.1430525681503090e-01  5.9678028266710570e-01  5.7860631926186734e-01  5.5973614192394006e-01  5.4011954382504301e-01  5.1970319829042688e-01  4.9843057580872069e-01  4.7624196362902510e-01  4.5307466599943602e-01  4.2886351082915980e-01  4.0354186277406118e-01  3.7704345473668144e-01  3.4930550985548736e-01  3.2027383208097437e-01  2.8991075026566937e-01  2.5820685288942491e-01  2.2519696383699073e-01  1.9097904691577378e-01  1.5573074861326272e-01  1.1971220728891938e-01  1.0000000000000000e+00  9.8940632915692683e-01  9.7880656639189145e-01  9.6819415692059596e-01  9.5756201589663437e-01  9.4690250079874561e-01  9.3620738346402410e-01  9.2546782160051533e-01  9.1467432961227346e-01  9.0381674856843564e-01  8.9288421514316840e-01  8.8186512934561512e-01  8.7074712084874506e-01  8.5951701371376832e-01  8.4816078929282201e-01  8.3666354707714363e-01  8.2500946324107949e-01  8.1318174661433351e-01  8.0116259179632288e-01  7.8893312910811264e-01  7.7647337106049674e-01  7.6376215500336286e-01  7.5077708161461498e-01  7.3749444889142024e-01  7.2388918132951252e-01  7.0993475402851947e-01  6.9560311155890087e-01  6.8086458159328578e-01  6.6568778357787461e-01  6.5003953315236473e-01  6.3388474370070269e-01  6.1718632745193069e-01  5.9990510013369358e-01  5.8199969558630282e-01  5.6342650038607556e-01  5.4413962402109650e-01  5.2409092842596627e-01  5.0323015304942398e-01  4.8150518999309155e-01  4.5886259067708562e-01  4.3524842409971443e-01  4.1060966016540040e-01  3.8489632085004954e-01  3.5806472134995304e-01  3.3008218962940494e-01  3.0093364596285305e-01  2.7063021861935582e-01  2.3921945322654742e-01  2.0679537892642699e-01  1.7350466307263168e-01  1.3954311464423649e-01  1.0000000000000000e+00  9.8945778627631953e-01  9.7890970994726512e-01  9.6834944832077074e-01  9.5777015295346901e-01  9.4716442349623453e-01  9.3652428123321918e-01  9.2584114217602320e-01  9.1510578957263355e-01  9.0430834568922636e-01  8.9343824272051364e-01  8.8248419268069833e-01  8.7143415612253927e-01  8.6027530952686759e-01  8.4899401119962836e-01  8.3757576550862489e-01  8.2600518528830913e-01  8.1426595223902265e-01  8.0234077514828528e-01  7.9021134576781160e-01  7.7785829219332836e-01  7.6526112961851256e-01  7.5239820837444105e-01  7.3924665922894051e-01  7.2578233601622455e-01  7.1197975581061979e-01  6.9781203706949102e-01  6.8325083647899465e-01  6.6826628568392077e-01  6.5282692972959344e-01  6.3689966997549541e-01  6.2044971557982209e-01  6.0344054957690962e-01  5.8583391832436249e-01  5.6758985703396836e-01  5.4866676970537720e-01  5.2902158970974578e-01  5.0861005837119189e-01  4.8738717418560062e-01  4.6530788584010352e-01  4.4232812859006965e-01  4.1840633505389346e-01  3.9350558389121976e-01  3.6759657168976456e-01  3.4066157988199613e-01  3.1269951358489850e-01  2.8373184069956831e-01  2.5380877174231392e-01  2.2301425588178000e-01  1.9146748739379413e-01  1.5931820661424598e-01  1.0000000000000000e+00  9.8951540031534746e-01  9.7902519352268136e-01  9.6852331548944759e-01  9.5800318106906612e-01  9.4745765953812733e-01  9.3687904977946213e-01  9.2625905509792672e-01  9.1558875755461000e-01  9.0485859170500194e-01  8.9405831762679633e-01  8.8317699312330400e-01  8.7220294498915352e-01  8.6112373922642660e-01  8.4992615010226491e-01  8.3859612794407135e-01  8.2711876557671649e-01  8.1547826331901441e-01  8.0365789247594754e-01  7.9163995729117842e-01  7.7940575536458390e-01  7.6693553659650382e-01  7.5420846080027393e-01  7.4120255423604497e-01  7.2789466547353265e-01  7.1426042120543654e-01  7.0027418292893184e-01  6.8590900582062619e-01  6.7113660169272249e-01  6.5592730869291938e-01  6.4025007147720336e-01  6.2407243705150195e-01  6.0736057349135719e-01  5.9007932150302633e-01  5.7219229253780113e-01  5.5366203223105959e-01  5.3445027468144990e-01  5.1451832190095159e-01  4.9382759394459624e-01  4.7234040872098948e-01  4.5002106542017939e-01  4.2683731930339514e-01  4.0276234256256449e-01  3.7777725511725113e-01  3.5187426200052857e-01  3.2506032315283484e-01  2.9736107545816731e-01  2.6882440756079579e-01  2.3952269156489925e-01  2.0955235715937429e-01  1.7902957342582418e-01  1.0000000000000000e+00  9.8957891548386567e-01  9.7915250398349141e-01  9.6871498482653484e-01  9.5826006146022025e-01  9.4778089859047743e-01  9.3727009912205650e-01  9.2671968080988398e-01  9.1612105253251519e-01  9.0546499010031256e-01  8.9474161151385234e-01  8.8394035159208861e-01  8.7304993589532021e-01  8.6205835387549379e-01  8.5095283119667409e-01  8.3971980118252065e-01  8.2834487536670098e-01  8.1681281314798471e-01  8.0510749058656250e-01  7.9321186842481017e-01  7.8110795947818734e-01  7.6877679562535450e-01  7.5619839473776107e-01  7.4335172803705563e-01  7.3021468856583005e-01  7.1676406171971718e-01  7.0297549913832336e-01  6.8882349771769091e-01  6.7428138612614286e-01  6.5932132202871974e-01  6.4391430431871166e-01  6.2803020610259441e-01  6.1163783609372691e-01  5.9470503857063384e-01  5.7719884529806065e-01  5.5908569695065891e-01  5.4033175675148093e-01  5.2090334527619653e-01  5.0076753248678374e-01  4.7989293039057229e-01  4.5825073576834935e-01  4.3581607424488389e-01  4.1256968945569078e-01  3.8849999609603958e-01  3.6360546195031712e-01  3.3789718879883357e-01  3.1140141684553185e-01  2.8416149041087163e-01  2.5623863974456879e-01  2.2771085755501566e-01  1.9866933079506122e-01  1.0000000000000000e+00  9.8964805134190070e-01  9.7929107879330290e-01  9.6892360836991542e-01  9.5853965570215782e-01  9.4813270496524660e-01  9.3769568766593347e-01  9.2722096121827635e-01  9.1670028724320884e-01  9.0612480953055496e-01  8.9548503160765702e-01  8.8477079386622526e-01  8.7397125020880606e-01  8.6307484418905023e-01  8.5206928463662557e-01  8.4094152077929241e-01  8.2967771690283776e-01  8.1826322662614170e-01  8.0668256691606721e-01  7.9491939202831519e-01  7.8295646763994864e-01  7.7077564554228606e-01  7.5835783939617996e-01  7.4568300222430517e-01  7.3273010653849868e-01  7.1947712828950661e-01  7.0590103620090894e-01  6.9197778853333547e-01  6.7768233995067617e-01  6.6298866196628903e-01  6.4786978148250718e-01  6.3229784325888372e-01  6.1624420381928580e-01  5.9967956640420828e-01  5.8257416915356353e-01  5.6489804179751169e-01  5.4662134969788334e-01  5.2771484793715928e-01  5.0815047185445994e-01  4.8790209310344573e-01  4.6694647040120335e-01  4.4526441911948617e-01  4.2284220996632571e-01  3.9967317918247591e-01  3.7575948531051190e-01  3.5111387656433701e-01  3.2576123989721112e-01  2.9973960270907202e-01  2.7310018616836063e-01  2.4590612359903535e-01  2.1822962308086932e-01  1.0000000000000000e+00  9.8972250445900245e-01  9.7944030934837556e-01  9.6914826883891836e-01  9.5884073253639757e-01  9.4851152627128965e-01  9.3815393279962922e-01  9.2776067236812509e-01  9.1732388310071833e-01  9.0683510116960098e-01  8.9628524072161742e-01  8.8566457354138639e-01  8.7496270844589119e-01  8.6416857042249373e-01  8.5327037954421248e-01  8.4225562972396584e-01  8.3111106740484642e-01  8.1982267032836420e-01  8.0837562657949769e-01  7.9675431417948228e-01  7.8494228158862556e-01  7.7292222959714030e-01  7.6067599522851392e-01  7.4818453846543842e-01  7.3542793284305519e-01  7.2238536125103459e-01  7.0903511866068780e-01  6.9535462396532088e-01  6.8132044371475986e-01  6.6690833126577065e-01  6.5209328578969150e-01  6.3684963670927008e-01  6.2115116050801744e-01  6.0497123848635137e-01  5.8828306592344182e-01  5.7105992518734872e-01  5.5327553747696001e-01  5.3490450979066106e-01  5.1592289488395382e-01  4.9630888155119335e-01  4.7604362923781585e-01  4.5511225289801782e-01  4.3350494876039558e-01  4.1121822660745949e-01  3.8825617725006345e-01  3.6463165525469765e-01  3.4036720170413809e-01  3.1549548293692431e-01  2.9005900192039474e-01  2.6410887933985527e-01  2.3770262642713458e-01  1.0000000000000000e+00  9.8980195016031225e-01  9.7959954448692110e-01  9.6938798494248368e-01  9.5916197503369860e-01  9.4891570251010149e-01  9.3864282202574867e-01  9.2833643773619412e-01  9.1798908580855587e-01  9.0759271682996001e-01  8.9713867810956072e-01  8.8661769588216588e-01  8.7601985743782662e-01  8.6533459322239059e-01  8.5455065897990701e-01  8.4365611804025642e-01  8.3263832389592951e-01  8.2148390326254317e-01  8.1017873988086286e-01  7.9870795939680950e-01  7.8705591575396572e-01  7.7520617965504357e-01  7.6314152980035033e-01  7.5084394779946362e-01  7.3829461788553485e-01  7.2547393285000672e-01  7.1236150797101394e-01  6.9893620514509092e-01  6.8517616996425079e-01  6.7105888512508494e-01  6.5656124432813867e-01  6.4165965173545658e-01  6.2633015310319140e-01  6.1054860587773685e-01  5.9429089678896285e-01  5.7753321669088475e-01  5.6025240340376847e-01  5.4242636379467279e-01  5.2403458581577977e-01  5.0505874899767544e-01  4.8548343700389102e-01  4.6529694708628749e-01  4.4449217732243662e-01  4.2306755229064413e-01  4.0102792118510705e-01  3.7838533111369566e-01  3.5515954759882651e-01  3.3137817368729056e-01  3.0707622228473364e-01  2.8229503791639049e-01  2.5708055189215512e-01  1.0000000000000000e+00  9.8988604434219263e-01  9.7976809413768773e-01  9.6964171689611411e-01  9.5950198803410092e-01  9.4934347551442688e-01  9.3916022449602721e-01  9.2894574198473989e-01  9.1869298148113709e-01  9.0839432763055838e-01  8.9804158089190333e-01  8.8762594225641078e-01  8.7713799806609349e-01  8.6656770500458147e-01  8.5590437536178177e-01  8.4513666270926302e-01  8.3425254816707917e-01  8.2323932749674500e-01  8.1208359932151775e-01  8.0077125485670764e-01  7.8928746963283192e-01  7.7761669781691822e-01  7.6574266988691864e-01  7.5364839459660127e-01  7.4131616638982778e-01  7.2872757969116664e-01  7.1586355182232386e-01  7.0270435667929410e-01  6.8922967176136207e-01  6.7541864167642185e-01  6.6124996185986340e-01  6.4670198693138981e-01  6.3175286885771109e-01  6.1638073085020439e-01  6.0056388363415225e-01  5.8428109126070638e-01  5.6751189380677114e-01  5.5023699384248725e-01  5.3243871204739213e-01  5.1410151430303075e-01  4.9521260734418288e-01  4.7576259192458420e-01  4.5574615086404541e-01  4.3516273410998513e-01  4.1401718474416593e-01  3.9232023082370837e-01  3.7008875220938903e-01  3.4734572542305669e-01  3.2411976073476090e-01  3.0044418060964534e-01  2.7635564856411376e-01  1.0000000000000000e+00  9.8997442534008784e-01  9.7994523307242642e-01  9.6990837209291569e-01  9.5985930578860645e-01  9.4979299863187971e-01  9.3970390282879401e-01  9.2958594502698166e-01  9.1943251309568119e-01  9.0923644300016437e-01  8.9899000580529254e-01  8.8868489485879398e-01  8.7831221322464992e-01  8.6786246146149038e-01  8.5732552587110911e-01  8.4669066737921084e-01  8.3594651125571406e-01  8.2508103793702070e-01  8.1408157527961578e-01  8.0293479265550582e-01  7.9162669739816161e-01  7.8014263422595154e-01  7.6846728841225209e-01  7.5658469364155423e-01  7.4447824569351262e-01  7.3213072333652862e-01  7.1952431809370521e-01  7.0664067487051707e-01  6.9346094580729201e-01  6.7996586013937488e-01  6.6613581330681715e-01  6.5195097903804133e-01  6.3739144860884200e-01  6.2243740190011898e-01  6.0706931516694507e-01  5.9126821047143330e-01  5.7501595135535000e-01  5.5829558830792259e-01  5.4109175562635103e-01  5.2339111801971494e-01  5.0518286039497051e-01  4.8645920735991577e-01  4.6721594994068394e-01  4.4745294609249869e-01  4.2717454970226781e-01  4.0638991181303036e-01  3.8511309073092131e-01  3.6336290842251612e-01  3.4116250321736197e-01  3.1853855588421276e-01  2.9552020666133955e-01  1.0000000000000000e+00  9.9006671583188077e-01  9.8013020472826839e-01  9.7018681087666614e-01  9.6023239973121610e-01  9.5026234656169295e-01  9.4027152509471157e-01  9.3025429626591838e-01  9.2020449710953911e-01  9.1011542982184257e-01  8.9997985104808753e-01  8.8978996145896350e-01  8.7953739570288259e-01  8.6921321284552555e