<?xml version="1.0"?>
<VTKFile type="UnstructuredGrid"  version="0.1"  >
<UnstructuredGrid>
<Piece  NumberOfPoints="2601" NumberOfCells="5000">
<Points>
<DataArray  type="Float64"  NumberOfComponents="3"  format="ascii">0 0 0  0.02 0 0  0.04 0 0  0.06 0 0  0.08 0 0  0.1 0 0  0.12 0 0  0.14 0 0  0.16 0 0  0.18 0 0  0.2 0 0  0.22 0 0  0.24 0 0  0.26 0 0  0.28 0 0  0.3 0 0  0.32 0 0  0.34 0 0  0.36 0 0  0.38 0 0  0.4 0 0  0.42 0 0  0.44 0 0  0.46 0 0  0.48 0 0  0.5 0 0  0.52 0 0  0.54 0 0  0.5600000000000001 0 0  0.58 0 0  0.6 0 0  0.62 0 0  0.64 0 0  0.66 0 0  0.68 0 0  0.7 0 0  0.72 0 0  0.74 0 0  0.76 0 0  0.78 0 0  0.8 0 0  0.82 0 0  0.84 0 0  0.86 0 0  0.88 0 0  0.9 0 0  0.92 0 0  0.9399999999999999 0 0  0.96 0 0  0.98 0 0  1 0 0  0 0.02 0  0.02 0.02 0  0.04 0.02 0  0.06 0.02 0  0.08 0.02 0  0.1 0.02 0  0.12 0.02 0  0.14 0.02 0  0.16 0.02 0  0.18 0.02 0  0.2 0.02 0  0.22 0.02 0  0.24 0.02 0  0.26 0.02 0  0.28 0.02 0  0.3 0.02 0  0.32 0.02 0  0.34 0.02 0  0.36 0.02 0  0.38 0.02 0  0.4 0.02 0  0.42 0.02 0  0.44 0.02 0  0.46 0.02 0  0.48 0.02 0  0.5 0.02 0  0.52 0.02 0  0.54 0.02 0  0.5600000000000001 0.02 0  0.58 0.02 0  0.6 0.02 0  0.62 0.02 0  0.64 0.02 0  0.66 0.02 0  0.68 0.02 0  0.7 0.02 0  0.72 0.02 0  0.74 0.02 0  0.76 0.02 0  0.78 0.02 0  0.8 0.02 0  0.82 0.02 0  0.84 0.02 0  0.86 0.02 0  0.88 0.02 0  0.9 0.02 0  0.92 0.02 0  0.9399999999999999 0.02 0  0.96 0.02 0  0.98 0.02 0  1 0.02 0  0 0.04 0  0.02 0.04 0  0.04 0.04 0  0.06 0.04 0  0.08 0.04 0  0.1 0.04 0  0.12 0.04 0  0.14 0.04 0  0.16 0.04 0  0.18 0.04 0  0.2 0.04 0  0.22 0.04 0  0.24 0.04 0  0.26 0.04 0  0.28 0.04 0  0.3 0.04 0  0.32 0.04 0  0.34 0.04 0  0.36 0.04 0  0.38 0.04 0  0.4 0.04 0  0.42 0.04 0  0.44 0.04 0  0.46 0.04 0  0.48 0.04 0  0.5 0.04 0  0.52 0.04 0  0.54 0.04 0  0.5600000000000001 0.04 0  0.58 0.04 0  0.6 0.04 0  0.62 0.04 0  0.64 0.04 0  0.66 0.04 0  0.68 0.04 0  0.7 0.04 0  0.72 0.04 0  0.74 0.04 0  0.76 0.04 0  0.78 0.04 0  0.8 0.04 0  0.82 0.04 0  0.84 0.04 0  0.86 0.04 0  0.88 0.04 0  0.9 0.04 0  0.92 0.04 0  0.9399999999999999 0.04 0  0.96 0.04 0  0.98 0.04 0  1 0.04 0  0 0.06 0  0.02 0.06 0  0.04 0.06 0  0.06 0.06 0  0.08 0.06 0  0.1 0.06 0  0.12 0.06 0  0.14 0.06 0  0.16 0.06 0  0.18 0.06 0  0.2 0.06 0  0.22 0.06 0  0.24 0.06 0  0.26 0.06 0  0.28 0.06 0  0.3 0.06 0  0.32 0.06 0  0.34 0.06 0  0.36 0.06 0  0.38 0.06 0  0.4 0.06 0  0.42 0.06 0  0.44 0.06 0  0.46 0.06 0  0.48 0.06 0  0.5 0.06 0  0.52 0.06 0  0.54 0.06 0  0.5600000000000001 0.06 0  0.58 0.06 0  0.6 0.06 0  0.62 0.06 0  0.64 0.06 0  0.66 0.06 0  0.68 0.06 0  0.7 0.06 0  0.72 0.06 0  0.74 0.06 0  0.76 0.06 0  0.78 0.06 0  0.8 0.06 0  0.82 0.06 0  0.84 0.06 0  0.86 0.06 0  0.88 0.06 0  0.9 0.06 0  0.92 0.06 0  0.9399999999999999 0.06 0  0.96 0.06 0  0.98 0.06 0  1 0.06 0  0 0.08 0  0.02 0.08 0  0.04 0.08 0  0.06 0.08 0  0.08 0.08 0  0.1 0.08 0  0.12 0.08 0  0.14 0.08 0  0.16 0.08 0  0.18 0.08 0  0.2 0.08 0  0.22 0.08 0  0.24 0.08 0  0.26 0.08 0  0.28 0.08 0  0.3 0.08 0  0.32 0.08 0  0.34 0.08 0  0.36 0.08 0  0.38 0.08 0  0.4 0.08 0  0.42 0.08 0  0.44 0.08 0  0.46 0.08 0  0.48 0.08 0  0.5 0.08 0  0.52 0.08 0  0.54 0.08 0  0.5600000000000001 0.08 0  0.58 0.08 0  0.6 0.08 0  0.62 0.08 0  0.64 0.08 0  0.66 0.08 0  0.68 0.08 0  0.7 0.08 0  0.72 0.08 0  0.74 0.08 0  0.76 0.08 0  0.78 0.08 0  0.8 0.08 0  0.82 0.08 0  0.84 0.08 0  0.86 0.08 0  0.88 0.08 0  0.9 0.08 0  0.92 0.08 0  0.9399999999999999 0.08 0  0.96 0.08 0  0.98 0.08 0  1 0.08 0  0 0.1 0  0.02 0.1 0  0.04 0.1 0  0.06 0.1 0  0.08 0.1 0  0.1 0.1 0  0.12 0.1 0  0.14 0.1 0  0.16 0.1 0  0.18 0.1 0  0.2 0.1 0  0.22 0.1 0  0.24 0.1 0  0.26 0.1 0  0.28 0.1 0  0.3 0.1 0  0.32 0.1 0  0.34 0.1 0  0.36 0.1 0  0.38 0.1 0  0.4 0.1 0  0.42 0.1 0  0.44 0.1 0  0.46 0.1 0  0.48 0.1 0  0.5 0.1 0  0.52 0.1 0  0.54 0.1 0  0.5600000000000001 0.1 0  0.58 0.1 0  0.6 0.1 0  0.62 0.1 0  0.64 0.1 0  0.66 0.1 0  0.68 0.1 0  0.7 0.1 0  0.72 0.1 0  0.74 0.1 0  0.76 0.1 0  0.78 0.1 0  0.8 0.1 0  0.82 0.1 0  0.84 0.1 0  0.86 0.1 0  0.88 0.1 0  0.9 0.1 0  0.92 0.1 0  0.9399999999999999 0.1 0  0.96 0.1 0  0.98 0.1 0  1 0.1 0  0 0.12 0  0.02 0.12 0  0.04 0.12 0  0.06 0.12 0  0.08 0.12 0  0.1 0.12 0  0.12 0.12 0  0.14 0.12 0  0.16 0.12 0  0.18 0.12 0  0.2 0.12 0  0.22 0.12 0  0.24 0.12 0  0.26 0.12 0  0.28 0.12 0  0.3 0.12 0  0.32 0.12 0  0.34 0.12 0  0.36 0.12 0  0.38 0.12 0  0.4 0.12 0  0.42 0.12 0  0.44 0.12 0  0.46 0.12 0  0.48 0.12 0  0.5 0.12 0  0.52 0.12 0  0.54 0.12 0  0.5600000000000001 0.12 0  0.58 0.12 0  0.6 0.12 0  0.62 0.12 0  0.64 0.12 0  0.66 0.12 0  0.68 0.12 0  0.7 0.12 0  0.72 0.12 0  0.74 0.12 0  0.76 0.12 0  0.78 0.12 0  0.8 0.12 0  0.82 0.12 0  0.84 0.12 0  0.86 0.12 0  0.88 0.12 0  0.9 0.12 0  0.92 0.12 0  0.9399999999999999 0.12 0  0.96 0.12 0  0.98 0.12 0  1 0.12 0  0 0.14 0  0.02 0.14 0  0.04 0.14 0  0.06 0.14 0  0.08 0.14 0  0.1 0.14 0  0.12 0.14 0  0.14 0.14 0  0.16 0.14 0  0.18 0.14 0  0.2 0.14 0  0.22 0.14 0  0.24 0.14 0  0.26 0.14 0  0.28 0.14 0  0.3 0.14 0  0.32 0.14 0  0.34 0.14 0  0.36 0.14 0  0.38 0.14 0  0.4 0.14 0  0.42 0.14 0  0.44 0.14 0  0.46 0.14 0  0.48 0.14 0  0.5 0.14 0  0.52 0.14 0  0.54 0.14 0  0.5600000000000001 0.14 0  0.58 0.14 0  0.6 0.14 0  0.62 0.14 0  0.64 0.14 0  0.66 0.14 0  0.68 0.14 0  0.7 0.14 0  0.72 0.14 0  0.74 0.14 0  0.76 0.14 0  0.78 0.14 0  0.8 0.14 0  0.82 0.14 0  0.84 0.14 0  0.86 0.14 0  0.88 0.14 0  0.9 0.14 0  0.92 0.14 0  0.9399999999999999 0.14 0  0.96 0.14 0  0.98 0.14 0  1 0.14 0  0 0.16 0  0.02 0.16 0  0.04 0.16 0  0.06 0.16 0  0.08 0.16 0  0.1 0.16 0  0.12 0.16 0  0.14 0.16 0  0.16 0.16 0  0.18 0.16 0  0.2 0.16 0  0.22 0.16 0  0.24 0.16 0  0.26 0.16 0  0.28 0.16 0  0.3 0.16 0  0.32 0.16 0  0.34 0.16 0  0.36 0.16 0  0.38 0.16 0  0.4 0.16 0  0.42 0.16 0  0.44 0.16 0  0.46 0.16 0  0.48 0.16 0  0.5 0.16 0  0.52 0.16 0  0.54 0.16 0  0.5600000000000001 0.16 0  0.58 0.16 0  0.6 0.16 0  0.62 0.16 0  0.64 0.16 0  0.66 0.16 0  0.68 0.16 0  0.7 0.16 0  0.72 0.16 0  0.74 0.16 0  0.76 0.16 0  0.78 0.16 0  0.8 0.16 0  0.82 0.16 0  0.84 0.16 0  0.86 0.16 0  0.88 0.16 0  0.9 0.16 0  0.92 0.16 0  0.9399999999999999 0.16 0  0.96 0.16 0  0.98 0.16 0  1 0.16 0  0 0.18 0  0.02 0.18 0  0.04 0.18 0  0.06 0.18 0  0.08 0.18 0  0.1 0.18 0  0.12 0.18 0  0.14 0.18 0  0.16 0.18 0  0.18 0.18 0  0.2 0.18 0  0.22 0.18 0  0.24 0.18 0  0.26 0.18 0  0.28 0.18 0  0.3 0.18 0  0.32 0.18 0  0.34 0.18 0  0.36 0.18 0  0.38 0.18 0  0.4 0.18 0  0.42 0.18 0  0.44 0.18 0  0.46 0.18 0  0.48 0.18 0  0.5 0.18 0  0.52 0.18 0  0.54 0.18 0  0.5600000000000001 0.18 0  0.58 0.18 0  0.6 0.18 0  0.62 0.18 0  0.64 0.18 0  0.66 0.18 0  0.68 0.18 0  0.7 0.18 0  0.72 0.18 0  0.74 0.18 0  0.76 0.18 0  0.78 0.18 0  0.8 0.18 0  0.82 0.18 0  0.84 0.18 0  0.86 0.18 0  0.88 0.18 0  0.9 0.18 0  0.92 0.18 0  0.9399999999999999 0.18 0  0.96 0.18 0  0.98 0.18 0  1 0.18 0  0 0.2 0  0.02 0.2 0  0.04 0.2 0  0.06 0.2 0  0.08 0.2 0  0.1 0.2 0  0.12 0.2 0  0.14 0.2 0  0.16 0.2 0  0.18 0.2 0  0.2 0.2 0  0.22 0.2 0  0.24 0.2 0  0.26 0.2 0  0.28 0.2 0  0.3 0.2 0  0.32 0.2 0  0.34 0.2 0  0.36 0.2 0  0.38 0.2 0  0.4 0.2 0  0.42 0.2 0  0.44 0.2 0  0.46 0.2 0  0.48 0.2 0  0.5 0.2 0  0.52 0.2 0  0.54 0.2 0  0.5600000000000001 0.2 0  0.58 0.2 0  0.6 0.2 0  0.62 0.2 0  0.64 0.2 0  0.66 0.2 0  0.68 0.2 0  0.7 0.2 0  0.72 0.2 0  0.74 0.2 0  0.76 0.2 0  0.78 0.2 0  0.8 0.2 0  0.82 0.2 0  0.84 0.2 0  0.86 0.2 0  0.88 0.2 0  0.9 0.2 0  0.92 0.2 0  0.9399999999999999 0.2 0  0.96 0.2 0  0.98 0.2 0  1 0.2 0  0 0.22 0  0.02 0.22 0  0.04 0.22 0  0.06 0.22 0  0.08 0.22 0  0.1 0.22 0  0.12 0.22 0  0.14 0.22 0  0.16 0.22 0  0.18 0.22 0  0.2 0.22 0  0.22 0.22 0  0.24 0.22 0  0.26 0.22 0  0.28 0.22 0  0.3 0.22 0  0.32 0.22 0  0.34 0.22 0  0.36 0.22 0  0.38 0.22 0  0.4 0.22 0  0.42 0.22 0  0.44 0.22 0  0.46 0.22 0  0.48 0.22 0  0.5 0.22 0  0.52 0.22 0  0.54 0.22 0  0.5600000000000001 0.22 0  0.58 0.22 0  0.6 0.22 0  0.62 0.22 0  0.64 0.22 0  0.66 0.22 0  0.68 0.22 0  0.7 0.22 0  0.72 0.22 0  0.74 0.22 0  0.76 0.22 0  0.78 0.22 0  0.8 0.22 0  0.82 0.22 0  0.84 0.22 0  0.86 0.22 0  0.88 0.22 0  0.9 0.22 0  0.92 0.22 0  0.9399999999999999 0.22 0  0.96 0.22 0  0.98 0.22 0  1 0.22 0  0 0.24 0  0.02 0.24 0  0.04 0.24 0  0.06 0.24 0  0.08 0.24 0  0.1 0.24 0  0.12 0.24 0  0.14 0.24 0  0.16 0.24 0  0.18 0.24 0  0.2 0.24 0  0.22 0.24 0  0.24 0.24 0  0.26 0.24 0  0.28 0.24 0  0.3 0.24 0  0.32 0.24 0  0.34 0.24 0  0.36 0.24 0  0.38 0.24 0  0.4 0.24 0  0.42 0.24 0  0.44 0.24 0  0.46 0.24 0  0.48 0.24 0  0.5 0.24 0  0.52 0.24 0  0.54 0.24 0  0.5600000000000001 0.24 0  0.58 0.24 0  0.6 0.24 0  0.62 0.24 0  0.64 0.24 0  0.66 0.24 0  0.68 0.24 0  0.7 0.24 0  0.72 0.24 0  0.74 0.24 0  0.76 0.24 0  0.78 0.24 0  0.8 0.24 0  0.82 0.24 0  0.84 0.24 0  0.86 0.24 0  0.88 0.24 0  0.9 0.24 0  0.92 0.24 0  0.9399999999999999 0.24 0  0.96 0.24 0  0.98 0.24 0  1 0.24 0  0 0.26 0  0.02 0.26 0  0.04 0.26 0  0.06 0.26 0  0.08 0.26 0  0.1 0.26 0  0.12 0.26 0  0.14 0.26 0  0.16 0.26 0  0.18 0.26 0  0.2 0.26 0  0.22 0.26 0  0.24 0.26 0  0.26 0.26 0  0.28 0.26 0  0.3 0.26 0  0.32 0.26 0  0.34 0.26 0  0.36 0.26 0  0.38 0.26 0  0.4 0.26 0  0.42 0.26 0  0.44 0.26 0  0.46 0.26 0  0.48 0.26 0  0.5 0.26 0  0.52 0.26 0  0.54 0.26 0  0.5600000000000001 0.26 0  0.58 0.26 0  0.6 0.26 0  0.62 0.26 0  0.64 0.26 0  0.66 0.26 0  0.68 0.26 0  0.7 0.26 0  0.72 0.26 0  0.74 0.26 0  0.76 0.26 0  0.78 0.26 0  0.8 0.26 0  0.82 0.26 0  0.84 0.26 0  0.86 0.26 0  0.88 0.26 0  0.9 0.26 0  0.92 0.26 0  0.9399999999999999 0.26 0  0.96 0.26 0  0.98 0.26 0  1 0.26 0  0 0.28 0  0.02 0.28 0  0.04 0.28 0  0.06 0.28 0  0.08 0.28 0  0.1 0.28 0  0.12 0.28 0  0.14 0.28 0  0.16 0.28 0  0.18 0.28 0  0.2 0.28 0  0.22 0.28 0  0.24 0.28 0  0.26 0.28 0  0.28 0.28 0  0.3 0.28 0  0.32 0.28 0  0.34 0.28 0  0.36 0.28 0  0.38 0.28 0  0.4 0.28 0  0.42 0.28 0  0.44 0.28 0  0.46 0.28 0  0.48 0.28 0  0.5 0.28 0  0.52 0.28 0  0.54 0.28 0  0.5600000000000001 0.28 0  0.58 0.28 0  0.6 0.28 0  0.62 0.28 0  0.64 0.28 0  0.66 0.28 0  0.68 0.28 0  0.7 0.28 0  0.72 0.28 0  0.74 0.28 0  0.76 0.28 0  0.78 0.28 0  0.8 0.28 0  0.82 0.28 0  0.84 0.28 0  0.86 0.28
[...]
<PointData  Scalars="f_17"> 
<DataArray  type="Float64"  Name="f_17"  format="ascii">1.0000000000000000e+00  9.8951953140129134e-01  9.7903225929377979e-01  9.6853079761768812e-01  9.5800716317021306e-01  9.4745273539970531e-01  9.3685822119433071e-01  9.2621362028339815e-01  9.1550819000130745e-01  9.0473040887376621e-01  8.9386793864914027e-01  8.8290758442318995e-01  8.7183525248813809e-01  8.6063590550066882e-01  8.4929351451368695e-01  8.3779100735386536e-01  8.2611021274950114e-01  8.1423179951812752e-01  8.0213521000672339e-01  7.8979858683398374e-01  7.7719869180714818e-01  7.6431081566639503e-01  7.5110867703609141e-01  7.3756430861872357e-01  7.2364792823341118e-01  7.0932779174864113e-01  6.9457002425020209e-01  6.7933842486800189e-01  6.6359423948652263e-01  6.4729589398019727e-01  6.3039867849953246e-01  6.1285437047194447e-01  5.9461078005598134e-01  5.7561119632133650e-01  5.5579370468590616e-01  5.3509033497163339e-01  5.1342598298445175e-01  4.9071702370069464e-01  4.6686949568608499e-01  4.4177667494428235e-01  4.1531575471822768e-01  3.8734317228887888e-01  3.5768780533635747e-01  3.2614064557558020e-01  2.9243827471109834e-01  2.5623451673753816e-01  2.1704698020650945e-01  1.7414236035546513e-01  1.2624584315877763e-01  7.0653310235342451e-02  0.0000000000000000e+00  1.0000000000000000e+00  9.8952306155087699e-01  9.7903931427304025e-01  9.6854140453774873e-01  9.5802136972509866e-01  9.4747060752271572e-01  9.3687984290513449e-01  9.2623909415984329e-01  9.1553763792099885e-01  9.0476397294368771e-01  8.9390578231052797e-01  8.8294989374019961e-01  8.7188223763837636e-01  8.6068780249236354e-01  8.4935058716079614e-01  8.3785354954777180e-01  8.2617855107471949e-01  8.1430629627022755e-01  8.0221626668404966e-01  7.8988664819155219e-01  7.7729425058235935e-01  7.6441441811332000e-01  7.5122092943995655e-01  7.3768588500745547e-01  7.2377957956227557e-01  7.0947035691219107e-01  6.9472444338009542e-01  6.7950575551604586e-01  6.6377567648458058e-01  6.4749279403459192e-01  6.3061259095077238e-01  6.1308707618232805e-01  5.9486434115811226e-01  5.7588802069803535e-01  5.5609663076617633e-01  5.3542274507080623e-01  5.1379195759988849e-01  4.9112155599108565e-01  4.6731879684881666e-01  4.4227862132765766e-01  4.1588056440776799e-01  3.8798447040740008e-01  3.5842438548419658e-01  3.2699956874453795e-01  2.9346078118112562e-01  2.5748858115875256e-01  2.1865793172893580e-01  1.7638083172354166e-01  1.2982637033229696e-01  7.7906104306835658e-02  1.9998666693333080e-02  1.0000000000000000e+00  9.8953365298333229e-01  9.7906053842950280e-01  9.6857335458222660e-01  9.5806419101419737e-01  9.4752449788856330e-01  9.3694505376268356e-01  9.2631593227731324e-01  9.1562646772641920e-01  9.0486521932668662e-01  8.9401993392857160e-01  8.8307750686672348e-01  8.7202394060983490e-01  8.6084430082871721e-01  8.4952266945249777e-01  8.3804209422375997e-01  8.2638453419172364e-01  8.1453080049536719e-01  8.0246049168206435e-01  7.9015192267734047e-01  7.7758204636188555e-01  7.6472636651539760e-01  7.5155884064344503e-01  7.3805177090048535e-01  7.2417568094261187e-01  7.0989917606522235e-01  6.9518878337366374e-01  6.8000876795871223e-01  6.6432092004851773e-01  6.4808430680880125e-01  6.3125498075858777e-01  6.1378563451209367e-01  5.9562518853918844e-01  5.7671829455684520e-01  5.5700473158698605e-01  5.3641866400581750e-01  5.1488772012937911e-01  4.9233183464793506e-01  4.6866177651496121e-01  4.4377725283269170e-01  4.1756443504936380e-01  3.8989269242640612e-01  3.6061023905305006e-01  3.2953832320142262e-01  2.9646360051891479e-01  2.6112876741032243e-01  2.2322352144144136e-01  1.8238512168348700e-01  1.3824119466497103e-01  9.0594374961911472e-02  3.9989334186634161e-02  1.0000000000000000e+00  9.8955126435841445e-01  9.7909583882488038e-01  9.6862650321960375e-01  9.5813543095378351e-01  9.4761415807679628e-01  9.3705355156081060e-01  9.2644377665733080e-01  9.1577426318325739e-01  9.0503367054278461e-01  8.9420985124387287e-01  8.8328981262906858e-01  8.7225967650384473e-01  8.6110463630636536e-01  8.4980891141730630e-01  8.3835569815461941e-01  8.2672711693365830e-01  8.1490415499531788e-01  8.0286660401079435e-01  7.9059299175741371e-01  7.7806050692110496e-01  7.6524491591141197e-01  7.5212047036690177e-01  7.3865980377269091e-01  7.2483381529499979e-01  7.1061153854404235e-01  6.9595999248510343e-01  6.8084401110107473e-01  6.6522604763228643e-01  6.4906594823459796e-01  6.3232068864345781e-01  6.1494406583100547e-01  5.9688633459371621e-01  5.7809377638256432e-01  5.5850818433440119e-01  5.3806624421958316e-01  5.1669878575846484e-01  4.9432987250776128e-01  4.7087569177266397e-01  4.4624320047238014e-01  4.2032848329375888e-01  3.9301479782831045e-01  3.6417034729953485e-01  3.3364600665924188e-01  3.0127370367431261e-01  2.6686732336546992e-01  2.3023074857228271e-01  1.9118370387362366e-01  1.4962772387552045e-01  1.0568950342191800e-01  5.9964006479444588e-02  1.0000000000000000e+00  9.8957581796197513e-01  9.7914505662142837e-01  9.6870060876790731e-01  9.5823476350970227e-01  9.4773917571034405e-01  9.3720483491922113e-01  9.2662203353730888e-01  9.1598033401237178e-01  9.0526853485350844e-01  8.9447463523206261e-01  8.8358579790824610e-01  8.7258831019242822e-01  8.6146754261612224e-01  8.5020790494847365e-01  8.3879279914796956e-01  8.2720456878437310e-01  8.1542444440060735e-01  8.0343248420626412e-01  7.9120750940084095e-01  7.7872703331246707e-01  7.6596718340269376e-01  7.5290261502501288e-01  7.3950641562803499e-01  7.2574999785641670e-01  7.1160297971477160e-01  6.9703304961137114e-01  6.8200581367714652e-01  6.6648462224751348e-01  6.5043037178549223e-01  6.3380127780170048e-01  6.1655261348361834e-01  5.9863640779273763e-01  5.8000109576880976e-01  5.6059111281364138e-01  5.4034642407809252e-01  5.1920198030206111e-01  4.9708709369026871e-01  4.7392473391301937e-01  4.4963075961006427e-01  4.2411313379813159e-01  3.9727124006352232e-01  3.6899555521597904e-01  3.3916821049712242e-01  3.0766551219225957e-01  2.7436450434366971e-01  2.3915742223991326e-01  2.0198049889266542e-01  1.6286583809785976e-01  1.2202109750986628e-01  7.9914693969172695e-02  1.0000000000000000e+00  9.8960720311614037e-01  9.7920796880380534e-01  9.6879533390419903e-01  9.5836173468971986e-01  9.4789897711729265e-01  9.3739820666365226e-01  9.2684987750530823e-01  9.1624372083224537e-01  9.0556871208707890e-01  8.9481303690987912e-01  8.8396405555019386e-01  8.7300826548465227e-01  8.6193126195151470e-01  8.5071769608206049e-01  8.3935123027198622e-01  8.2781449039294164e-01  8.1608901439380777e-01  8.0415519678196090e-01  7.9199222840506300e-01  7.7957803087214961e-01  7.6688918485703339e-01  7.5390085141527285e-01  7.4058668531599448e-01  7.2691873923982764e-01  7.1286735752269736e-01  6.9840105793210661e-01  6.8348639975034742e-01  6.6808783621490919e-01  6.5216754914592701e-01  6.3568526340437281e-01  6.1859803872935737e-01  6.0086003659985043e-01  5.8242226023467170e-01  5.6323226699894824e-01  5.4323385487443299e-01  5.2236672923370575e-01  5.0056616460957659e-01  4.7776269139954380e-01  4.5388186460044233e-01  4.2884421958133029e-01  4.0256560364814137e-01  3.7495821652334438e-01  3.4593293581009010e-01  3.1540389442325395e-01  2.8329685289490975e-01  2.4956360356865856e-01  2.1420502602838212e-01  1.7730412149655048e-01  1.3906431652427206e-01  9.9833416646828155e-02  1.0000000000000000e+00  9.8964527783994860e-01  9.7928429015096052e-01  9.6891024802844217e-01  9.5851576555617901e-01  9.4809283115562237e-01  9.3763277856275373e-01  9.2712625723266229e-01  9.1656320197924335e-01  9.0593280165775381e-01  8.9522346669083119e-01  8.8442279522610612e-01  8.7351753769714391e-01  8.6249355953982987e-01  8.5133580179344259e-01  8.4002823928935411e-01  8.2855383610010824e-01  8.1689449788717272e-01  8.0503102074654243e-01  7.9294303610722128e-01  7.8060895118834994e-01  7.6800588446648832e-01  7.5510959554602419e-01  7.4189440876446822e-01  7.2833312980354514e-01  7.1439695452190122e-01  7.0005536918502009e-01  6.8527604125764596e-01  6.7002469996801051e-01  6.5426500599079473e-01  6.3795840988983410e-01  6.2106399951263402e-01  6.0353833749712305e-01  5.8533529169329024e-01  5.6640586402884041e-01  5.4669802781654864e-01  5.2615659076491572e-01  5.0472311269471692e-01  4.8233592584523460e-01  4.5893033582467441e-01  4.3443912898775333e-01  4.0879358624189277e-01  3.8192531527575546e-01  3.5376937328913316e-01  3.2426935832802622e-01  2.9338535416013189e-01  2.6110566582084827e-01  2.2746279625104848e-01  1.9255235170264828e-01  1.5654958536303157e-01  1.1971220728891938e-01  1.0000000000000000e+00  9.8968987010981457e-01  9.7937367537729592e-01  9.6904483022493781e-01  9.5869615609568759e-01  9.4831985410086039e-01  9.3790747733810187e-01  9.2744990271259486e-01  9.1693730209425939e-01  9.0635911264210567e-01  8.9570400612213019e-01  8.8495985703737134e-01  8.7411370937846988e-01  8.6315174179080878e-01  8.5205923094030611e-01  8.4082051284442483e-01  8.2941894191803556e-01  8.1783684746581975e-01  8.0605548733430143e-01  7.9405499841818439e-01  7.8181434369872960e-01  7.6931125547844925e-01  7.5652217446950543e-01  7.4342218439766783e-01  7.2998494180664164e-01  7.1618260079978247e-01  7.0198573255385377e-01  6.8736323960664525e-01  6.7228226519319667e-01  6.5670809833814348e-01  6.4060407608558823e-01  6.2393148528489872e-01  6.0664946793416952e-01  5.8871493648849493e-01  5.7008250918108472e-01  5.5070448089980573e-01  5.3053085342527784e-01  5.0950946120417007e-01  4.8758624719593668e-01  4.6470577024906956e-01  4.4081206407484830e-01  4.1585002129407295e-01  3.8976754532807212e-01  3.6251879228294942e-01  3.3406889124583516e-01  3.0440052459253752e-01  2.7352254445614588e-01  2.4148018288992318e-01  2.0836511882111763e-01  1.7432163351105667e-01  1.3954311464423649e-01  1.0000000000000000e+00  9.8974077909960245e-01  9.7947572150353579e-01  9.6919847273335757e-01  9.5890208983612268e-01  9.4857901549226353e-01  9.3822105184111437e-01  9.2781933388542681e-01  9.1736430233415878e-01  9.0684567574124297e-01  8.9625242179556752e-01  8.8557272761373140e-01  8.7479396888254268e-01  8.6390267769301665e-01  8.5288450890232514e-01  8.4172420485521859e-01  8.3040555829256435e-01  8.1891137327266261e-01  8.0722342393217117e-01  7.9532241091949862e-01  7.8318791534689702e-01  7.7079835013169651e-01  7.5813090863716071e-01  7.4516151058642299e-01  7.3186474531893564e-01  7.1821381260226325e-01  7.0418046142335589e-01  6.8973492749194798e-01  6.7484587063636692e-01  6.5948031391876516e-01  6.4360358722849975e-01  6.2717927945197327e-01  6.1016920524002349e-01  5.9253339514891290e-01  5.7423012186830602e-01  5.5521598085462898e-01  5.3544605161656489e-01  5.1487417700026183e-01  4.9345341311375096e-01  4.7113672305412307e-01  4.4787801399486993e-01  4.2363364869462605e-01  3.9836459489429499e-01  3.7203939792936580e-01  3.4463814838029450e-01  3.1615752165500410e-01  2.8661671783888965e-01  2.5606364227822109e-01  2.2457990235874403e-01  1.9228231467042969e-01  1.5931820661424598e-01  1.0000000000000000e+00  9.8979777650956124e-01  9.7958997048793894e-01  9.6937048488357869e-01  9.5913263912776969e-01  9.4886914483599594e-01  9.3857208127933878e-01  9.2823287051245840e-01  9.1784225204350944e-01  9.0739025693113207e-01  8.9686618119375872e-01  8.8625855841673318e-01  8.7555513144338526e-01  8.6474282303763750e-01  8.5380770540857265e-01  8.4273496849241536e-01  8.3150888689565183e-01  8.2011278541579657e-01  8.0852900307550968e-01  7.9673885563377389e-01  7.8472259657800547e-01  7.7245937665789177e-01  7.5992720210159381e-01  7.4710289176635414e-01  7.3396203363017365e-01  7.2047894124528566e-01  7.0662661106982250e-01  6.9237668200204661e-01  6.7769939900386411e-01  6.6256358347515198e-01  6.4693661410708203e-01  6.3078442340945629e-01  6.1407151712033070e-01  5.9676102646050599e-01  5.7881480694394560e-01  5.6019360251499550e-01  5.4085730052732173e-01  5.2076531189496333e-01  4.9987712192414907e-01  4.7815307082708935e-01  4.5555543785460356e-01  4.3204991679265892e-01  4.0760757753144389e-01  3.8220739757535305e-01  3.5583940014580218e-01  3.2850832469541424e-01  3.0023754966562899e-01  2.7107266802078378e-01  2.4108371965237652e-01  2.1036476618422645e-01  1.7902957342582418e-01  1.0000000000000000e+00  9.8986060801081166e-01  9.7971591211651343e-01  9.6956009745164351e-01  9.5938677101286851e-01  9.4918893906424595e-01  9.3895898436764702e-01  9.2868864314829169e-01  9.1836898170590453e-01  9.0799037258373305e-01  8.9754247021051181e-01  8.8701418593442716e-01  8.7639366237361183e-01  8.6566824701514378e-01  8.5482446500477205e-01  8.4384799108354458e-01  8.3272362064658112e-01  8.2143523992497325e-01  8.0996579532656865e-01  7.9829726201802065e-01  7.8641061189290640e-01  7.7428578115408175e-01  7.6190163784956155e-01  7.4923594984928532e-01  7.3626535394726134e-01  7.2296532703606053e-01  7.0931016065008889e-01  6.9527294063926159e-01  6.8082553435386062e-01  6.6593858854473753e-01  6.5058154227632348e-01  6.3472266059776050e-01  6.1832909662655877e-01  6.0136699219972145e-01  5.8380163048972467e-01  5.6559765812450902e-01  5.4671939952309201e-01  5.2713129239727741e-01  5.0679848048294773e-01  4.8568760689671642e-01  4.6376785756172517e-01  4.4101230597614155e-01  4.1739960307844115e-01  3.9291603099563188e-01  3.6755788577231535e-01  3.4133405897670738e-01  3.1426854282489047e-01  2.8640239656378358e-01  2.5779452896214039e-01  2.2852057550042948e-01  1.9866933079506122e-01  1.0000000000000000e+00  9.8992899480412022e-01  9.7985298713222480e-01  9.6976646738901617e-01  9.5966335360760091e-01  9.4953697064780429e-01  9.3938002927531894e-01  9.2918460505376299e-01  9.1894211698408224e-01  9.0864330582957076e-01  8.9827821207027458e-01  8.8783615343792077e-01  8.7730570199227487e-01  8.6667466071255306e-01  8.5593003959412672e-01  8.4505803126239454e-01  8.3404398614380759e-01  8.2287238727056966e-01  8.1152682484289695e-01  7.9998997073412892e-01  7.8824355320348616e-01  7.7626833218422986e-01  7.6404407564825383e-01  7.5154953772069466e-01  7.3876243944154718e-01  7.2565945336054816e-01  7.1221619352599286e-01  6.9840721291246144e-01  6.8420601095804745e-01  6.6958505468795437e-01  6.5451581793667601e-01  6.3896884450311642e-01  6.2291384274774342e-01  6.0631982123718220e-01  5.8915527762062492e-01  5.7138845601483135e-01  5.5298769173959961e-01  5.3392186610012804e-01  5.1416099761531353e-01  4.9367699876661569e-01  4.7244462743643234e-01  4.5044265718728166e-01  4.2765527662978403e-01  4.0407370030372691e-01  3.7969792612960090e-01  3.5453850345738508e-01  3.2861808280902155e-01  3.0197241825287457e-01  2.7465042138237672e-01  2.4671288034676805e-01  2.1822962308086932e-01  1.0000000000000000e+00  9.9000263528132537e-01  9.8000059057358757e-01  9.6998868287246465e-01  9.5996116291867950e-01  9.4991169625819660e-01  9.3983334423769360e-01  9.2971854488818029e-01  9.1955909365364352e-01  9.0934612392737146e-01  8.9907008736649985e-01  8.8872073396566664e-01  8.7828709188404830e-01  8.6775744703718005e-01  8.5711932248681921e-01  8.4635945768988796e-01  8.3546378770287444e-01  8.2441742248285899e-01  8.1320462648318970e-01  8.0180879881386968e-01  7.9021245432801812e-01  7.7839720611141650e-01  7.6634374999864163e-01  7.5403185192473188e-01  7.4144033915603724e-01  7.2854709674062834e-01  7.1532907089329134e-01  7.0176228150212960e-01  6.8782184653650502e-01  6.7348202187684425e-01  6.5871626100644620e-01  6.4349730013612638e-01  6.2779727570390098e-01  6.1158788282291732e-01  5.9484058513557725e-01  5.7752688861553425e-01  5.5961869400029907e-01  5.4108874444870703e-01  5.2191118618492671e-01  5.0206225946374994e-01  4.8152113386323186e-01  4.6027089381939235e-01  4.3829966506527229e-01  4.1560184757996366e-01  3.9217938372818717e-01  3.6804294164761320e-01  3.4321283866331714e-01  3.1771948067343692e-01  2.9160307415932268e-01  2.6491240790180459e-01  2.3770262642713458e-01  1.0000000000000000e+00  9.9008120677366651e-01  9.8015807528853338e-01  9.7022576861917043e-01  9.6027889001571676e-01  9.5031146587544446e-01  9.4031692870136252e-01  9.3028810002001283e-01  9.2021717323596963e-01  9.1009569640801202e-01  8.9991455494179007e-01  8.8966395420659672e-01  8.7933340210014765e-01  8.6891169160581672e-01  8.5838688341265301e-01  8.4774628870089774e-01  8.3697645223622397e-01  8.2606313596652292e-01  8.1499130337817483e-01  8.0374510494739504e-01  7.9230786512022522e-01  7.8066207137661758e-01  7.6878936608558934e-01  7.5667054204654516e-01  7.4428554284502346e-01  7.3161346943944772e-01  7.1863259475092045e-01  7.0532038846441336e-01  6.9165355478214596e-01  6.7760808651451387e-01  6.6315933966554808e-01  6.4828213357954212e-01  6.3295088276452560e-01  6.1713976767987455e-01  6.0082295302054356e-01  5.8397486324723569e-01  5.6657052611560443e-01  5.4858599544068198e-01  5.2999886381521188e-01  5.1078887377848237e-01  4.9093863104152091e-01  4.7043441460786817e-01  4.4926706467076577e-01  4.2743290894209152e-01  4.0493466141515011e-01  3.8178219630334131e-01  3.5799306917459428e-01  3.3359263668683775e-01  3.0861362953980298e-01  2.8309507484488056e-01  2.5708055189215512e-01  1.0000000000000000e+00  9.9016436736982527e-01  9.8032475558785404e-01  9.7047669141106341e-01  9.6061514848127039e-01  9.5073453223942150e-01  9.4082866487487460e-01  9.3089077029934186e-01  9.2091345914158462e-01  9.1088871376768377e-01  9.0080787334310453e-01  8.9066161896737861e-01  8.8043995893063909e-01  8.7013221416423303e-01  8.5972700398625768e-01  8.4921223227829390e-01  8.3857507427333733e-01  8.2780196418888352e-01  8.1687858400546631e-01  8.0578985377247903e-01  7.9451992392311099e-01  7.8305217020266249e-01  7.7136919196410303e-01  7.5945281476706861e-01  7.4728409843799160e-01  7.3484335201703710e-01  7.2211015734002726e-01  7.0906340338889828e-01  6.9568133400045451e-01  6.8194161205650972e-01  6.6782140389126809e-01  6.5329748833895263e-01  6.3834639558827955e-01  6.2294458177157941e-01  6.0706864592394782e-01  5.9069559648242720e-01  5.7380317466936204e-01  5.5637024163867010e-01  5.3837723476529631e-01  5.1980669540492275e-01  5.0064386520554471e-01  4.8087733992632997e-01  4.6049975813031174e-01  4.3950848688364064e-01  4.1790624839194601e-01  3.9570161246267987e-01  3.7290926394632118e-01  3.4954994819828533e-01  3.2565000876243433e-01  3.0124046640703128e-01  2.7635564856411376e-01  1.0000000000000000e+00  9.9025175778630325e-01  9.8049991100274503e-01  9.7074036577357414e-01  9.6096848206298224e-01  9.5117906054681889e-01  9.4136632956259070e-01  9.3152393214296358e-01  9.2164491314513664e-01  9.1172170649808559e-01  9.0174612260210874e-01  8.9170933593089174e-01  8.8160187290605674e-01  8.7141360013861147e-01  8.6113371316184084e-01  8.5075072581713673e-01  8.4025246049937863e-01  8.2962603952351188e-01  8.1885787794082676e-01  8.0793367821452833e-01  7.9683842726225695e-01  7.8555639649147369e-01  7.7407114559573842e-01  7.6236553104999905e-01  7.5042172044553968e-01  7.3822121404484276e-01  7.2574487521781217e-01  7.1297297174725505e-01  6.9988523036525108e-01  6.8646090730177900e-01  6.7267887808594806e-01  6.5851775032277005e-01  6.4395600364537531e-01  6.2897216146462032e-01  6.1354499942731422e-01  5.9765379553424114e-01  5.8127862649270967e-01  5.6440071385800761e-01  5.4700282156030133e-01  5.2906970316686464e-01  5.1058859231766163e-01  4.9154972286863291e-01  4.7194685623987803e-01  4.5177778254722500e-01  4.3104475021566924e-01  4.0975476780474601e-01  3.8791971470673731e-01  3.6555619812604945e-01  3.4268510635537636e-01  3.1933083541842366e-01  2.9552020666133955e-01  1.0000000000000000e+00  9.9034300327337454e-01  9.8068279011241433e-01  9.7101565975664650e-01  9.6133737245639406e-01  9.5164313830166347e-01  9.4192760616737425e-01  9.3218485279355390e-01  9.2240837202672099e-01  9.1259106425878478e-01  9.0272522611276373e-01  8.9280254044099439e-01  8.8281406672179763e-01  8.7275023196553791e