<?xml version="1.0"?>
<VTKFile type="UnstructuredGrid"  version="0.1"  >
<UnstructuredGrid>
<Piece  NumberOfPoints="2601" NumberOfCells="5000">
<Points>
<DataArray  type="Float64"  NumberOfComponents="3"  format="ascii">0 0 0  0.02 0 0  0.04 0 0  0.06 0 0  0.08 0 0  0.1 0 0  0.12 0 0  0.14 0 0  0.16 0 0  0.18 0 0  0.2 0 0  0.22 0 0  0.24 0 0  0.26 0 0  0.28 0 0  0.3 0 0  0.32 0 0  0.34 0 0  0.36 0 0  0.38 0 0  0.4 0 0  0.42 0 0  0.44 0 0  0.46 0 0  0.48 0 0  0.5 0 0  0.52 0 0  0.54 0 0  0.5600000000000001 0 0  0.58 0 0  0.6 0 0  0.62 0 0  0.64 0 0  0.66 0 0  0.68 0 0  0.7 0 0  0.72 0 0  0.74 0 0  0.76 0 0  0.78 0 0  0.8 0 0  0.82 0 0  0.84 0 0  0.86 0 0  0.88 0 0  0.9 0 0  0.92 0 0  0.9399999999999999 0 0  0.96 0 0  0.98 0 0  1 0 0  0 0.02 0  0.02 0.02 0  0.04 0.02 0  0.06 0.02 0  0.08 0.02 0  0.1 0.02 0  0.12 0.02 0  0.14 0.02 0  0.16 0.02 0  0.18 0.02 0  0.2 0.02 0  0.22 0.02 0  0.24 0.02 0  0.26 0.02 0  0.28 0.02 0  0.3 0.02 0  0.32 0.02 0  0.34 0.02 0  0.36 0.02 0  0.38 0.02 0  0.4 0.02 0  0.42 0.02 0  0.44 0.02 0  0.46 0.02 0  0.48 0.02 0  0.5 0.02 0  0.52 0.02 0  0.54 0.02 0  0.5600000000000001 0.02 0  0.58 0.02 0  0.6 0.02 0  0.62 0.02 0  0.64 0.02 0  0.66 0.02 0  0.68 0.02 0  0.7 0.02 0  0.72 0.02 0  0.74 0.02 0  0.76 0.02 0  0.78 0.02 0  0.8 0.02 0  0.82 0.02 0  0.84 0.02 0  0.86 0.02 0  0.88 0.02 0  0.9 0.02 0  0.92 0.02 0  0.9399999999999999 0.02 0  0.96 0.02 0  0.98 0.02 0  1 0.02 0  0 0.04 0  0.02 0.04 0  0.04 0.04 0  0.06 0.04 0  0.08 0.04 0  0.1 0.04 0  0.12 0.04 0  0.14 0.04 0  0.16 0.04 0  0.18 0.04 0  0.2 0.04 0  0.22 0.04 0  0.24 0.04 0  0.26 0.04 0  0.28 0.04 0  0.3 0.04 0  0.32 0.04 0  0.34 0.04 0  0.36 0.04 0  0.38 0.04 0  0.4 0.04 0  0.42 0.04 0  0.44 0.04 0  0.46 0.04 0  0.48 0.04 0  0.5 0.04 0  0.52 0.04 0  0.54 0.04 0  0.5600000000000001 0.04 0  0.58 0.04 0  0.6 0.04 0  0.62 0.04 0  0.64 0.04 0  0.66 0.04 0  0.68 0.04 0  0.7 0.04 0  0.72 0.04 0  0.74 0.04 0  0.76 0.04 0  0.78 0.04 0  0.8 0.04 0  0.82 0.04 0  0.84 0.04 0  0.86 0.04 0  0.88 0.04 0  0.9 0.04 0  0.92 0.04 0  0.9399999999999999 0.04 0  0.96 0.04 0  0.98 0.04 0  1 0.04 0  0 0.06 0  0.02 0.06 0  0.04 0.06 0  0.06 0.06 0  0.08 0.06 0  0.1 0.06 0  0.12 0.06 0  0.14 0.06 0  0.16 0.06 0  0.18 0.06 0  0.2 0.06 0  0.22 0.06 0  0.24 0.06 0  0.26 0.06 0  0.28 0.06 0  0.3 0.06 0  0.32 0.06 0  0.34 0.06 0  0.36 0.06 0  0.38 0.06 0  0.4 0.06 0  0.42 0.06 0  0.44 0.06 0  0.46 0.06 0  0.48 0.06 0  0.5 0.06 0  0.52 0.06 0  0.54 0.06 0  0.5600000000000001 0.06 0  0.58 0.06 0  0.6 0.06 0  0.62 0.06 0  0.64 0.06 0  0.66 0.06 0  0.68 0.06 0  0.7 0.06 0  0.72 0.06 0  0.74 0.06 0  0.76 0.06 0  0.78 0.06 0  0.8 0.06 0  0.82 0.06 0  0.84 0.06 0  0.86 0.06 0  0.88 0.06 0  0.9 0.06 0  0.92 0.06 0  0.9399999999999999 0.06 0  0.96 0.06 0  0.98 0.06 0  1 0.06 0  0 0.08 0  0.02 0.08 0  0.04 0.08 0  0.06 0.08 0  0.08 0.08 0  0.1 0.08 0  0.12 0.08 0  0.14 0.08 0  0.16 0.08 0  0.18 0.08 0  0.2 0.08 0  0.22 0.08 0  0.24 0.08 0  0.26 0.08 0  0.28 0.08 0  0.3 0.08 0  0.32 0.08 0  0.34 0.08 0  0.36 0.08 0  0.38 0.08 0  0.4 0.08 0  0.42 0.08 0  0.44 0.08 0  0.46 0.08 0  0.48 0.08 0  0.5 0.08 0  0.52 0.08 0  0.54 0.08 0  0.5600000000000001 0.08 0  0.58 0.08 0  0.6 0.08 0  0.62 0.08 0  0.64 0.08 0  0.66 0.08 0  0.68 0.08 0  0.7 0.08 0  0.72 0.08 0  0.74 0.08 0  0.76 0.08 0  0.78 0.08 0  0.8 0.08 0  0.82 0.08 0  0.84 0.08 0  0.86 0.08 0  0.88 0.08 0  0.9 0.08 0  0.92 0.08 0  0.9399999999999999 0.08 0  0.96 0.08 0  0.98 0.08 0  1 0.08 0  0 0.1 0  0.02 0.1 0  0.04 0.1 0  0.06 0.1 0  0.08 0.1 0  0.1 0.1 0  0.12 0.1 0  0.14 0.1 0  0.16 0.1 0  0.18 0.1 0  0.2 0.1 0  0.22 0.1 0  0.24 0.1 0  0.26 0.1 0  0.28 0.1 0  0.3 0.1 0  0.32 0.1 0  0.34 0.1 0  0.36 0.1 0  0.38 0.1 0  0.4 0.1 0  0.42 0.1 0  0.44 0.1 0  0.46 0.1 0  0.48 0.1 0  0.5 0.1 0  0.52 0.1 0  0.54 0.1 0  0.5600000000000001 0.1 0  0.58 0.1 0  0.6 0.1 0  0.62 0.1 0  0.64 0.1 0  0.66 0.1 0  0.68 0.1 0  0.7 0.1 0  0.72 0.1 0  0.74 0.1 0  0.76 0.1 0  0.78 0.1 0  0.8 0.1 0  0.82 0.1 0  0.84 0.1 0  0.86 0.1 0  0.88 0.1 0  0.9 0.1 0  0.92 0.1 0  0.9399999999999999 0.1 0  0.96 0.1 0  0.98 0.1 0  1 0.1 0  0 0.12 0  0.02 0.12 0  0.04 0.12 0  0.06 0.12 0  0.08 0.12 0  0.1 0.12 0  0.12 0.12 0  0.14 0.12 0  0.16 0.12 0  0.18 0.12 0  0.2 0.12 0  0.22 0.12 0  0.24 0.12 0  0.26 0.12 0  0.28 0.12 0  0.3 0.12 0  0.32 0.12 0  0.34 0.12 0  0.36 0.12 0  0.38 0.12 0  0.4 0.12 0  0.42 0.12 0  0.44 0.12 0  0.46 0.12 0  0.48 0.12 0  0.5 0.12 0  0.52 0.12 0  0.54 0.12 0  0.5600000000000001 0.12 0  0.58 0.12 0  0.6 0.12 0  0.62 0.12 0  0.64 0.12 0  0.66 0.12 0  0.68 0.12 0  0.7 0.12 0  0.72 0.12 0  0.74 0.12 0  0.76 0.12 0  0.78 0.12 0  0.8 0.12 0  0.82 0.12 0  0.84 0.12 0  0.86 0.12 0  0.88 0.12 0  0.9 0.12 0  0.92 0.12 0  0.9399999999999999 0.12 0  0.96 0.12 0  0.98 0.12 0  1 0.12 0  0 0.14 0  0.02 0.14 0  0.04 0.14 0  0.06 0.14 0  0.08 0.14 0  0.1 0.14 0  0.12 0.14 0  0.14 0.14 0  0.16 0.14 0  0.18 0.14 0  0.2 0.14 0  0.22 0.14 0  0.24 0.14 0  0.26 0.14 0  0.28 0.14 0  0.3 0.14 0  0.32 0.14 0  0.34 0.14 0  0.36 0.14 0  0.38 0.14 0  0.4 0.14 0  0.42 0.14 0  0.44 0.14 0  0.46 0.14 0  0.48 0.14 0  0.5 0.14 0  0.52 0.14 0  0.54 0.14 0  0.5600000000000001 0.14 0  0.58 0.14 0  0.6 0.14 0  0.62 0.14 0  0.64 0.14 0  0.66 0.14 0  0.68 0.14 0  0.7 0.14 0  0.72 0.14 0  0.74 0.14 0  0.76 0.14 0  0.78 0.14 0  0.8 0.14 0  0.82 0.14 0  0.84 0.14 0  0.86 0.14 0  0.88 0.14 0  0.9 0.14 0  0.92 0.14 0  0.9399999999999999 0.14 0  0.96 0.14 0  0.98 0.14 0  1 0.14 0  0 0.16 0  0.02 0.16 0  0.04 0.16 0  0.06 0.16 0  0.08 0.16 0  0.1 0.16 0  0.12 0.16 0  0.14 0.16 0  0.16 0.16 0  0.18 0.16 0  0.2 0.16 0  0.22 0.16 0  0.24 0.16 0  0.26 0.16 0  0.28 0.16 0  0.3 0.16 0  0.32 0.16 0  0.34 0.16 0  0.36 0.16 0  0.38 0.16 0  0.4 0.16 0  0.42 0.16 0  0.44 0.16 0  0.46 0.16 0  0.48 0.16 0  0.5 0.16 0  0.52 0.16 0  0.54 0.16 0  0.5600000000000001 0.16 0  0.58 0.16 0  0.6 0.16 0  0.62 0.16 0  0.64 0.16 0  0.66 0.16 0  0.68 0.16 0  0.7 0.16 0  0.72 0.16 0  0.74 0.16 0  0.76 0.16 0  0.78 0.16 0  0.8 0.16 0  0.82 0.16 0  0.84 0.16 0  0.86 0.16 0  0.88 0.16 0  0.9 0.16 0  0.92 0.16 0  0.9399999999999999 0.16 0  0.96 0.16 0  0.98 0.16 0  1 0.16 0  0 0.18 0  0.02 0.18 0  0.04 0.18 0  0.06 0.18 0  0.08 0.18 0  0.1 0.18 0  0.12 0.18 0  0.14 0.18 0  0.16 0.18 0  0.18 0.18 0  0.2 0.18 0  0.22 0.18 0  0.24 0.18 0  0.26 0.18 0  0.28 0.18 0  0.3 0.18 0  0.32 0.18 0  0.34 0.18 0  0.36 0.18 0  0.38 0.18 0  0.4 0.18 0  0.42 0.18 0  0.44 0.18 0  0.46 0.18 0  0.48 0.18 0  0.5 0.18 0  0.52 0.18 0  0.54 0.18 0  0.5600000000000001 0.18 0  0.58 0.18 0  0.6 0.18 0  0.62 0.18 0  0.64 0.18 0  0.66 0.18 0  0.68 0.18 0  0.7 0.18 0  0.72 0.18 0  0.74 0.18 0  0.76 0.18 0  0.78 0.18 0  0.8 0.18 0  0.82 0.18 0  0.84 0.18 0  0.86 0.18 0  0.88 0.18 0  0.9 0.18 0  0.92 0.18 0  0.9399999999999999 0.18 0  0.96 0.18 0  0.98 0.18 0  1 0.18 0  0 0.2 0  0.02 0.2 0  0.04 0.2 0  0.06 0.2 0  0.08 0.2 0  0.1 0.2 0  0.12 0.2 0  0.14 0.2 0  0.16 0.2 0  0.18 0.2 0  0.2 0.2 0  0.22 0.2 0  0.24 0.2 0  0.26 0.2 0  0.28 0.2 0  0.3 0.2 0  0.32 0.2 0  0.34 0.2 0  0.36 0.2 0  0.38 0.2 0  0.4 0.2 0  0.42 0.2 0  0.44 0.2 0  0.46 0.2 0  0.48 0.2 0  0.5 0.2 0  0.52 0.2 0  0.54 0.2 0  0.5600000000000001 0.2 0  0.58 0.2 0  0.6 0.2 0  0.62 0.2 0  0.64 0.2 0  0.66 0.2 0  0.68 0.2 0  0.7 0.2 0  0.72 0.2 0  0.74 0.2 0  0.76 0.2 0  0.78 0.2 0  0.8 0.2 0  0.82 0.2 0  0.84 0.2 0  0.86 0.2 0  0.88 0.2 0  0.9 0.2 0  0.92 0.2 0  0.9399999999999999 0.2 0  0.96 0.2 0  0.98 0.2 0  1 0.2 0  0 0.22 0  0.02 0.22 0  0.04 0.22 0  0.06 0.22 0  0.08 0.22 0  0.1 0.22 0  0.12 0.22 0  0.14 0.22 0  0.16 0.22 0  0.18 0.22 0  0.2 0.22 0  0.22 0.22 0  0.24 0.22 0  0.26 0.22 0  0.28 0.22 0  0.3 0.22 0  0.32 0.22 0  0.34 0.22 0  0.36 0.22 0  0.38 0.22 0  0.4 0.22 0  0.42 0.22 0  0.44 0.22 0  0.46 0.22 0  0.48 0.22 0  0.5 0.22 0  0.52 0.22 0  0.54 0.22 0  0.5600000000000001 0.22 0  0.58 0.22 0  0.6 0.22 0  0.62 0.22 0  0.64 0.22 0  0.66 0.22 0  0.68 0.22 0  0.7 0.22 0  0.72 0.22 0  0.74 0.22 0  0.76 0.22 0  0.78 0.22 0  0.8 0.22 0  0.82 0.22 0  0.84 0.22 0  0.86 0.22 0  0.88 0.22 0  0.9 0.22 0  0.92 0.22 0  0.9399999999999999 0.22 0  0.96 0.22 0  0.98 0.22 0  1 0.22 0  0 0.24 0  0.02 0.24 0  0.04 0.24 0  0.06 0.24 0  0.08 0.24 0  0.1 0.24 0  0.12 0.24 0  0.14 0.24 0  0.16 0.24 0  0.18 0.24 0  0.2 0.24 0  0.22 0.24 0  0.24 0.24 0  0.26 0.24 0  0.28 0.24 0  0.3 0.24 0  0.32 0.24 0  0.34 0.24 0  0.36 0.24 0  0.38 0.24 0  0.4 0.24 0  0.42 0.24 0  0.44 0.24 0  0.46 0.24 0  0.48 0.24 0  0.5 0.24 0  0.52 0.24 0  0.54 0.24 0  0.5600000000000001 0.24 0  0.58 0.24 0  0.6 0.24 0  0.62 0.24 0  0.64 0.24 0  0.66 0.24 0  0.68 0.24 0  0.7 0.24 0  0.72 0.24 0  0.74 0.24 0  0.76 0.24 0  0.78 0.24 0  0.8 0.24 0  0.82 0.24 0  0.84 0.24 0  0.86 0.24 0  0.88 0.24 0  0.9 0.24 0  0.92 0.24 0  0.9399999999999999 0.24 0  0.96 0.24 0  0.98 0.24 0  1 0.24 0  0 0.26 0  0.02 0.26 0  0.04 0.26 0  0.06 0.26 0  0.08 0.26 0  0.1 0.26 0  0.12 0.26 0  0.14 0.26 0  0.16 0.26 0  0.18 0.26 0  0.2 0.26 0  0.22 0.26 0  0.24 0.26 0  0.26 0.26 0  0.28 0.26 0  0.3 0.26 0  0.32 0.26 0  0.34 0.26 0  0.36 0.26 0  0.38 0.26 0  0.4 0.26 0  0.42 0.26 0  0.44 0.26 0  0.46 0.26 0  0.48 0.26 0  0.5 0.26 0  0.52 0.26 0  0.54 0.26 0  0.5600000000000001 0.26 0  0.58 0.26 0  0.6 0.26 0  0.62 0.26 0  0.64 0.26 0  0.66 0.26 0  0.68 0.26 0  0.7 0.26 0  0.72 0.26 0  0.74 0.26 0  0.76 0.26 0  0.78 0.26 0  0.8 0.26 0  0.82 0.26 0  0.84 0.26 0  0.86 0.26 0  0.88 0.26 0  0.9 0.26 0  0.92 0.26 0  0.9399999999999999 0.26 0  0.96 0.26 0  0.98 0.26 0  1 0.26 0  0 0.28 0  0.02 0.28 0  0.04 0.28 0  0.06 0.28 0  0.08 0.28 0  0.1 0.28 0  0.12 0.28 0  0.14 0.28 0  0.16 0.28 0  0.18 0.28 0  0.2 0.28 0  0.22 0.28 0  0.24 0.28 0  0.26 0.28 0  0.28 0.28 0  0.3 0.28 0  0.32 0.28 0  0.34 0.28 0  0.36 0.28 0  0.38 0.28 0  0.4 0.28 0  0.42 0.28 0  0.44 0.28 0  0.46 0.28 0  0.48 0.28 0  0.5 0.28 0  0.52 0.28 0  0.54 0.28 0  0.5600000000000001 0.28 0  0.58 0.28 0  0.6 0.28 0  0.62 0.28 0  0.64 0.28 0  0.66 0.28 0  0.68 0.28 0  0.7 0.28 0  0.72 0.28 0  0.74 0.28 0  0.76 0.28 0  0.78 0.28 0  0.8 0.28 0  0.82 0.28 0  0.84 0.28 0  0.86 0.28
[...]
<PointData  Scalars="f_17"> 
<DataArray  type="Float64"  Name="f_17"  format="ascii">1.0000000000000000e+00  9.8595872248039806e-01  9.7191832067322026e-01  9.5787873525472400e-01  9.4383976899089450e-01  9.2980091565305778e-01  9.1576126570357508e-01  9.0171943131192689e-01  8.8767347678173514e-01  8.7362085051006666e-01  8.5955831714071429e-01  8.4548188927947920e-01  8.3138675834134956e-01  8.1726722413953568e-01  8.0311662280283524e-01  7.8892725255161877e-01  7.7469029678352064e-01  7.6039574381950836e-01  7.4603230253758024e-01  7.3158731297064838e-01  7.1704665076094720e-01  7.0239462413685161e-01  6.8761386179776829e-01  6.7268518974325775e-01  6.5758749464310096e-01  6.4229757078769623e-01  6.2678994694492951e-01  6.1103668852813997e-01  5.9500716927702790e-01  5.7866780506632964e-01  5.6198174033829684e-01  5.4490847479005122e-01  5.2740341401860935e-01  5.0941732235724435e-01  4.9089564839290611e-01  4.7177768248221119e-01  4.5199548912443926e-01  4.3147253222454646e-01  4.1012187282070595e-01  3.8784375742001626e-01  3.6452231341146313e-01  3.4002089254761064e-01  3.1417528501161479e-01  2.8678341174560795e-01  2.5758882007900974e-01  2.2625235675046634e-01  1.9229873220793706e-01  1.5500184693789809e-01  1.1309422477980642e-01  6.3879263026432070e-02  0.0000000000000000e+00  1.0000000000000000e+00  9.8596283692294617e-01  9.7192626548321537e-01  9.5789046522390131e-01  9.4385530929668804e-01  9.2982032368153511e-01  9.1578462172124842e-01  9.0174683618921669e-01  8.8770505173227165e-01  8.7365673756600915e-01  8.5959868000306516e-01  8.4552691443531458e-01  8.3143665642117526e-01  8.1732223152009120e-01  8.0317700347734411e-01  7.8899330030134129e-01  7.7476233769540659e-01  7.6047413920665830e-01  7.4611745233320492e-01  7.3167965968337301e-01  7.1714668410077353e-01  7.0250288644834846e-01  6.8773095447201082e-01  6.7281178082533488e-01  6.5772432791122926e-01  6.4244547665819307e-01  6.2694985566167005e-01  6.1120964623594676e-01  5.9519435777074003e-01  5.7887056627331279e-01  5.6220160696536814e-01  5.4514720909752612e-01  5.2766305745466513e-01  5.0970025992323598e-01  4.9120469332442762e-01  4.7211618947411177e-01  4.5236750851117002e-01  4.3188302434371939e-01  4.1057701327389490e-01  3.8835138406663466e-01  3.6509260283305162e-01  3.4066742521847965e-01  3.1491680659462606e-01  2.8764693183039952e-01  2.5861552383377323e-01  2.2751015959082221e-01  1.9391289904923983e-01  1.5724293892935193e-01  1.1667669110278933e-01  7.1133182327599423e-02  1.9998666693333080e-02  1.0000000000000000e+00  9.8597417426038192e-01  9.7194888976603377e-01  9.5792441464062050e-01  9.4390070270393600e-01  9.2987734757968210e-01  9.1585352405982101e-01  9.0182792455358651e-01  8.8779869382026044e-01  8.7376336295481383e-01  8.5971878279007286e-01  8.4566105660039959e-01  8.3158547187934728e-01  8.1748643089584561e-01  8.0335737967146115e-01  7.8919073495247993e-01  7.7497780866987387e-01  7.6070872928422040e-01  7.4637235929775048e-01  7.3195620807752304e-01  7.1744633896648224e-01  7.0282726945536822e-01  6.8808186293836560e-01  6.7319121026621243e-01  6.5813449892532616e-01  6.4288886718803928e-01  6.2742923996727806e-01  6.1172814232858985e-01  5.9575548560833613e-01  5.7947831978345921e-01  5.6286054403039321e-01  5.4586256515089149e-01  5.2844089052134302e-01  5.1054763813924031e-01  4.9212994076061273e-01  4.7312921340911540e-01  4.5348024275431037e-01  4.3311004162183281e-01  4.1193639018857597e-01  3.8986595434968696e-01  3.6679182751503203e-01  3.4259028073393422e-01  3.1711642736465806e-01  2.9019843101909726e-01  2.6162989821301313e-01  2.3116053199327671e-01  1.9848711323816035e-01  1.6325408222494003e-01  1.2509636519730924e-01  8.3824032286341082e-02  3.9989334186634161e-02  1.0000000000000000e+00  9.8599278523732403e-01  9.7198615626209439e-01  9.5798046655357549e-01  9.4397576582214759e-01  9.2997174386908599e-01  9.1596767108890331e-01  9.0196233624976629e-01  8.8795398269000991e-01  8.7394024356179945e-01  8.5991807634052064e-01  8.4588369658251195e-01  8.3183251078044207e-01  8.1775904807787236e-01  8.0365689053224298e-01  7.8951860154416564e-01  7.7533565199310939e-01  7.6109834353063965e-01  7.4679572837838215e-01  7.3241552485479866e-01  7.1794402770774324e-01  7.0336601215261529e-01  6.8866463030102876e-01  6.7382129840257621e-01  6.5881557299979021e-01  6.4362501369768532e-01  6.2822502975316108e-01  6.1258870706872159e-01  5.9668661139365697e-01  5.8048656254738495e-01  5.6395337322304484e-01  5.4704854432565331e-01  5.2972990674653164e-01  5.1195119684722989e-01  4.9366154957001851e-01  4.7480488884541200e-01  4.5531918970186941e-01  4.3513558022818449e-01  4.1417724479088047e-01  3.9235808437747510e-01  3.6958109033997011e-01  3.4573640616949763e-01  3.2069911783928640e-01  2.9432699841636251e-01  2.6645890846912118e-01  2.3691572050407675e-01  2.0550838000284335e-01  1.7206376992419969e-01  1.3649069901073535e-01  9.8923270385002579e-02  5.9964006479444588e-02  1.0000000000000000e+00  9.8601862666497309e-01  9.7203793790152748e-01  9.5805839978746687e-01  9.4408018334148347e-01  9.3010310389275308e-01  9.1612656022879357e-01  9.0214947271411838e-01  8.8817022045846583e-01  8.7418657772884134e-01  8.6019564970048101e-01  8.4619380752359552e-01  8.3217662258643232e-01  8.1813879977794646e-01  8.0407410948550451e-01  7.8997531799669329e-01  7.7583411590414075e-01  7.6164104403432353e-01  7.4738541633242261e-01  7.3305523903213643e-01  7.1863712531842938e-01  7.0411620454827673e-01  6.8947602492454951e-01  6.7469844831515025e-01  6.5976353566594592e-01  6.4464942116303392e-01  6.2933217294677546e-01  6.1378563775447859e-01  5.9798126635673499e-01  5.8188791603977696e-01  5.6547162565996101e-01  5.4869535795014135e-01  5.3151870280084290e-01  5.1389753421676088e-01  4.9578361267936855e-01  4.7712412399462184e-01  4.5786114592777144e-01  4.3793103615710172e-01  4.1726374158130508e-01  3.9578204430036085e-01  3.7340079260781578e-01  3.5002623380777720e-01  3.2555570445737719e-01  2.9987821004153387e-01  2.7287696482444729e-01  2.4443597444126550e-01  2.1445450971967067e-01  1.8287593368529353e-01  1.4973959502521880e-01  1.1526053120933517e-01  7.9914693969172695e-02  1.0000000000000000e+00  9.8605160197297037e-01  9.7210402785345107e-01  9.5815788883728914e-01  9.4421350714274255e-01  9.3027085430576584e-01  9.1632948993459662e-01  9.0238850023492967e-01  8.8844643609422003e-01  8.7450125069505757e-01  8.6055023664706298e-01  8.4658996258585539e-01  8.3261620913164980e-01  8.1862390404336849e-01  8.0460705634872720e-01  7.9055868917497618e-01  7.7647077094638273e-01  7.6233414455097270e-01  7.4813845400841295e-01  7.3387206809131555e-01  7.1952200026163093e-01  7.0507382418016629e-01  6.9051158392836642e-01  6.7581769794516500e-01  6.6097285552591567e-01  6.4595590455371033e-01  6.3074372893559028e-01  6.1531111399968874e-01  5.9963059788128259e-01  5.8367230670169334e-01  5.6740377115447982e-01  5.5078972201482046e-01  5.3379186218185160e-01  5.1636861332922657e-01  4.9847483639047285e-01  4.8006152749182524e-01  4.6107549552460253e-01  4.4145903599708980e-01  4.2114963105068642e-01  4.0007973267621461e-01  3.7817673407434954e-01  3.5536331784372233e-01  3.3155851404233444e-01  3.0668004410388705e-01  2.8064891748927639e-01  2.5339782385938298e-01  2.2488555763953985e-01  1.9512009416212589e-01  1.6419164499077074e-01  1.3231098276637754e-01  9.9833416646828155e-02  1.0000000000000000e+00  9.8609157482801724e-01  9.7218414783045137e-01  9.5827850769778333e-01  9.4437515880546508e-01  9.3047425995147526e-01  9.1657556356642456e-01  9.0267835500667681e-01  8.8878139172427884e-01  8.7488284222033297e-01  8.6098022472529523e-01  8.4707034554109939e-01  8.3314923695037479e-01  8.1921209456011157e-01  8.0525321390611782e-01  7.9126592610183877e-01  7.7724253227047269e-01  7.6317423645216464e-01  7.4905107662770709e-01  7.3486185344609634e-01  7.2059405618510020e-01  7.0623378541177972e-01  6.9176567174420567e-01  6.7717279004796382e-01  6.6243656833442643e-01  6.4753669056745211e-01  6.3245099254025794e-01  6.1715534996964272e-01  6.0162355799483391e-01  5.8582720140224720e-01  5.6973551518817078e-01  5.5331523561920859e-01  5.3653044291558627e-01  5.1934239832156270e-01  5.0170938105059892e-01  4.8358653505830473e-01  4.6492574285679028e-01  4.4567555532150738e-01  4.2578122531900192e-01  4.0518492315042581e-01  3.8382625952923988e-01  3.6164331602425337e-01  3.3857449488456731e-01  3.1456166023999493e-01  2.8955524868573485e-01  2.6352223408162551e-01  2.3645788358514341e-01  2.0840175523610288e-01  1.7945662470629048e-01  1.4980505070046882e-01  1.1971220728891938e-01  1.0000000000000000e+00  9.8613837470921073e-01  9.7227795377369564e-01  9.5841973446632034e-01  9.4456443382718913e-01  9.3071242850184388e-01  9.1686369495959885e-01  9.0301774991285910e-01  8.8917359080660396e-01  8.7532963629682237e-01  8.6148366666041798e-01  8.4763276407871080e-01  8.3377325272078817e-01  8.1990063852892081e-01  8.0600954858040474e-01  7.9209366987074492e-01  7.7814568733308997e-01  7.6415722087885651e-01  7.5011876121498733e-01  7.3601960416507795e-01  7.2184778319578291e-01  7.0758999982852711e-01  6.9323155160247885e-01  6.7875625725278033e-01  6.6414637878521543e-01  6.4938254017549246e-01  6.3444364251423935e-01  6.1930677558174119e-01  6.0394712610544943e-01  5.8833788338246373e-01  5.7245014361970781e-01  5.5625281537827886e-01  5.3971253008868447e-01  5.2279356400597543e-01  5.0545778161156940e-01  4.8766461595987670e-01  4.6937110972802831e-01  4.5053205309093036e-01  4.3110027290457936e-01  4.1102715459414207e-01  3.9026351675047788e-01  3.6876101184099930e-01  3.4647429573070271e-01  3.2336428808058931e-01  2.9940291195439123e-01  2.7457969414079214e-01  2.4891040224916006e-01  2.2244727603192321e-01  1.9528911597902476e-01  1.6758746089736490e-01  1.3954311464423649e-01  1.0000000000000000e+00  9.8619179989001859e-01  9.7238504009379867e-01  9.5858095601256588e-01  9.4478050674744629e-01  9.3098431635432410e-01  9.1719261541411168e-01  9.0340518286238136e-01  8.8962128802101470e-01  8.7583963278818611e-01  8.6205829395210554e-01  8.4827466559320297e-01  8.3448540153029771e-01  8.2068635775192911e-01  8.0687253475726006e-01  7.9303801971391796e-01  7.7917592832429905e-01  7.6527834627860247e-01  7.5133627016354243e-01  7.3733954769213861e-01  7.2327681712463276e-01  7.0913544576691412e-01  6.9490146746575621e-01  6.8055951907674583e-01  6.6609277597100391e-01  6.5148288678501098e-01  6.3670990782446302e-01  6.2175223783735878e-01  6.0658655431526143e-01  5.9118775312481664e-01  5.7552889419994224e-01  5.5958115736147707e-01  5.4331381425072589e-01  5.2669422511519193e-01  5.0968787311898323e-01  4.9225845445215782e-01  4.7436805043823488e-01  4.5597741893633359e-01  4.3704645762245975e-01  4.1753491225435369e-01  3.9740342941367668e-01  3.7661508471833610e-01  3.5513754989849322e-01  3.3294608398472403e-01  3.1002752034876158e-01  2.8638532640631448e-01  2.6204556423463676e-01  2.3706309249617083e-01  2.1152658507114594e-01  1.8556006055054838e-01  1.5931820661424598e-01  1.0000000000000000e+00  9.8625161954355511e-01  9.7250494328927228e-01  9.5876147268386591e-01  9.4502243685560705e-01  9.3128873546533730e-01  9.1756088184985718e-01  9.0383894647319096e-01  8.9012250068604437e-01  8.7641056079132884e-01  8.6270153241363567e-01  8.4899315516826668e-01  8.3528244762001991e-01  8.2156565251458058e-01  8.0783818225774728e-01  7.9409456461163463e-01  7.8032838857409514e-01  7.6653225040968587e-01  7.5269769980960333e-01  7.3881518617668640e-01  7.2487400506320110e-01  7.1086224483826721e-01  6.9676673373459719e-01  6.8257298752926432e-01  6.6826515826214017e-01  6.5382598460454444e-01  6.3923674478167070e-01  6.2447721335610218e-01  6.0952562373822416e-01  5.9435863906056963e-01  5.7895133511642105e-01  5.6327720052663277e-01  5.4730816130875848e-01  5.3101463977377616e-01  5.1436566142102980e-01  4.9732902855859601e-01  4.7987158611691466e-01  4.6195961393545015e-01  4.4355939097657610e-01  4.2463799040940403e-01  4.0516437943764483e-01  3.8511091154937410e-01  3.6445530582567065e-01  3.4318319710072431e-01  3.2129129354622155e-01  2.9879106741770872e-01  2.7571269871490711e-01  2.5210867221280070e-01  2.2805603188723705e-01  2.0365597820066961e-01  1.7902957342582418e-01  1.0000000000000000e+00  9.8631757556039534e-01  9.7263714536459767e-01  9.5896050312740588e-01  9.4528917435747795e-01  9.3162436092365508e-01  9.1796688592129594e-01  9.0431713889917797e-01  8.9067502149121736e-01  8.7703989348933931e-01  8.6341051938987945e-01  8.4978501544309337e-01  8.3616079723279091e-01  8.2253452781117375e-01  8.0890206641391571e-01  7.9525841778377104e-01  7.8159768213934344e-01  7.6791300584109667e-01  7.5419653283165111e-01  7.4043935696494700e-01  7.2663147539288764e-01  7.1276174325378427e-01  6.9881783001111042e-01  6.8478617793285756e-01  6.7065196339326538e-01  6.5639906193608699e-01  6.4201001838337379e-01  6.2746602373480531e-01  6.1274690121789865e-01  5.9783110466926725e-01  5.8269573351706982e-01  5.6731657007944858e-01  5.5166814679973430e-01  5.3572385353664098e-01  5.1945609826697148e-01  5.0283653869689560e-01  4.8583640744692930e-01  4.6842695971105952e-01  4.5058007939970718e-01  4.3226908710454987e-01  4.1346979926711147e-01  3.9416188975856514e-01  3.7433059755456222e-01  3.5396879921709951e-01  3.3307941120393086e-01  3.1167799182204992e-01  2.8979526738606826e-01  2.6747912024193959e-01  2.4479539342600434e-01  2.2182679046939166e-01  1.9866933079506122e-01  1.0000000000000000e+00  9.8638938429508327e-01  9.7278107724190421e-01  9.5917718928678053e-01  9.4557956693701284e-01  9.3198973912868921e-01  9.1840886392076759e-01  9.0483767560785877e-01  8.9127643233040510e-01  8.7772486425240337e-01  8.6418212237210978e-01  8.5064672802900454e-01  8.3711652317032403e-01  8.2358862144303768e-01  8.1005936018322544e-01  7.9652425338579935e-01  7.8297794575516533e-01  7.6941416796384166e-01  7.5582569328385052e-01  7.4220429580819247e-01  7.2854071055097158e-01  7.1482459581016777e-01  7.0104449830348003e-01  6.8718782175402715e-01  6.7324079982049800e-01  6.5918847455059115e-01  6.4501468190641442e-01  6.3070204639070526e-01  6.1623198742455643e-01  6.0158474093009739e-01  5.8673940060361562e-01  5.7167398468360808e-01  5.5636553568986968e-01  5.4079026270298081e-01  5.2492373832938610e-01  5.0874116558642324e-01  4.9221773350341103e-01  4.7532908408588814e-01  4.5805191698899239e-01  4.4036476091764143e-01  4.2224894086141190e-01  4.0368976525023054e-01  3.8467794320954640e-01  3.6521121426606606e-01  3.4529612548467353e-01  3.2494981998364481e-01  3.0420160784259592e-01  2.8309399025754767e-01  2.6168273582908386e-01  2.4003562234128234e-01  2.1822962308086932e-01  1.0000000000000000e+00  9.8646673832196630e-01  9.7293612224537751e-01  9.5941060159159453e-01  9.4589236666092236e-01  9.3238329646495066e-01  9.1888490732129113e-01  9.0539830192811643e-01  8.9192411902527302e-01  8.7846248374145697e-01  8.6501295872300865e-01  8.5157449613909697e-01  8.3814539066053673e-01  8.2472323351572785e-01  8.1130486773818422e-01  7.9788634473720244e-01  7.8446288234810246e-01  7.7102882455330812e-01  7.5757760311295541e-01  7.4410170140697018e-01  7.3059262087374477e-01  7.1704085053876476e-01  7.0343584026627792e-01  6.8976597854643251e-01  6.7601857585949321e-01  6.6217985495051412e-01  6.4823494971798590e-01  6.3416791488790980e-01  6.1996174923371317e-01  6.0559843583976170e-01  5.9105900382256471e-01  5.7632361705135304e-01  5.6137169677800169e-01  5.4618208671422808e-01  5.3073327097560807e-01  5.1500365739248311e-01  4.9897194082550445e-01  4.8261756303155090e-01  4.6592128678943112e-01  4.4886590156393974e-01  4.3143707465406222e-01  4.1362435367559719e-01  3.9542231097181635e-01  3.7683179548499862e-01  3.5786122069268139e-01  3.3852776858542905e-01  3.1885833438168398e-01  2.9888998783651649e-01  2.7866970770646582e-01  2.5825318635607086e-01  2.3770262642713458e-01  1.0000000000000000e+00  9.8654930822727582e-01  9.7310161968119546e-01  9.5965974432970491e-01  9.4622623717098187e-01  9.3280334837415713e-01  9.1939297382256913e-01  9.0599660619785860e-01  8.9261528673522184e-01  8.7924955777458513e-01  8.6589941622987499e-01  8.5256426809933683e-01  8.3924288414448389e-01  8.2593335687438507e-01  8.1263305898668148e-01  7.9933860343826757e-01  7.8604580534862145e-01  7.7274964597945128e-01  7.5944423908808489e-01  7.4612280002201925e-01  7.3277761801198238e-01  7.1940003223543869e-01  7.0598041236732501e-01  6.9250814451690468e-01  6.7897162367733788e-01  6.6535825409802318e-01  6.5165445934077393e-01  6.3784570421320819e-01  6.2391653130149638e-01  6.0985061546577068e-01  5.9563084042991155e-01  5.8123940250400186e-01  5.6665794752374332e-01  5.5186774825972773e-01  5.3684993079153764e-01  5.2158575955528008e-01  5.0605699177356345e-01  4.9024631245646777e-01  4.7413786064078106e-01  4.5771785530872205e-01  4.4097532453247995e-01  4.2390293261995032e-01  4.0649788607427095e-01  3.8876287894983980e-01  3.7070701152989349e-01  3.5234658498632626e-01  3.3370564395602764e-01  3.1481611834903678e-01  2.9571741890915920e-01  2.7645538262889996e-01  2.5708055189215512e-01  1.0000000000000000e+00  9.8663674444153115e-01  9.7327686850829809e-01  9.5992356117411781e-01  9.4657976110423170e-01  9.3324810873105457e-01  9.1993089877286527e-01  9.0663003335167713e-01  8.9334697586059464e-01  8.8008270572695846e-01  8.6683767421634550e-01  8.5361176142467388e-01  8.4040423461196623e-01  8.2721370804252603e-01  8.1403810451347614e-01  8.0087461877803212e-01  7.8771968310314155e-01  7.7456893524514203e-01  7.6141718918415924e-01  7.4825840903088059e-01  7.3508568661141960e-01  7.2189122335117217e-01  7.0866631722160045e-01  6.9540135569026940e-01  6.8208581583060968e-01  6.6870827301105273e-01  6.5525641990133332e-01  6.4171709791519771e-01  6.2807634366136278e-01  6.1431945350455330e-01  6.0043106994806827e-01  5.8639529423344217e-01  5.7219583029337284e-01  5.5781616595230166e-01  5.4323979797352628e-01  5.2845050808314531e-01  5.1343269727189689e-01  4.9817178520696076e-01  4.8265468008350387e-01  4.6687032118851202e-01  4.5081029119969646e-01  4.3446948711162003e-01  4.1784682708766901e-01  4.0094595529793792e-01  3.8377588859610284e-01  3.6635152984182673e-01  3.4869395693433253e-01  3.3083039050675389e-01  3.1279375438475759e-01  2.9462177783754900e-01  2.7635564856411376e-01  1.0000000000000000e+00  9.8672867910626116e-01  9.7346113108217247e-01  9.6020094082739527e-01  9.4695144767890982e-01  9.3371569943286425e-01  9.2049640684760015e-01  9.0729589879952943e-01  8.9411607825899841e-01  8.8095837925050613e-01  8.6782372496143800e-01  8.5471248716668280e-01  8.4162444714390372e-01  8.2855875826665870e-01  8.1551391048111577e-01  8.0248769689795407e-01  7.8947718276563084e-01  7.7647867713631635e-01  7.6348770759341544e-01  7.5049899848211887e-01  7.3750645317465424e-01  7.2450314101299507e-01  7.1148128970742308e-01  6.9843228413356617e-01  6.8534667266781457e-01  6.7221418243589692e-01  6.5902374512631712e-01  6.4576353534297037e-01  6.3242102384145271e-01  6.1898304841005791e-01  6.0543590561234983e-01  5.9176546708782707e-01  5.7795732458121685e-01  5.6399696829002899e-01  5.4987000340623737e-01  5.3556240976468339e-01  5.2106084913097894e-01  5.0635302363769052e-01  4.9142808691586870e-01  4.7627710621817348e-01  4.6089356891354921e-01  4.4527391982508019e-01  4.2941810684056497e-01  4.1333010130158726e-01  3.9701834779161110e-01  3.8049608696986797e-01  3.6378148802321542e-01  3.4689752805010043e-01  3.2987156829251502e-01  3.1273460418055082e-01  2.9552020666133955e-01  1.0000000000000000e+00  9.8682472796473819e-01  9.7365363694818285e-01  9.6049072274281910e-01  9.4733974038443536e-01  9.3420416011719376e-01  9.2108712387441616e-01  9.0799140245979792e-01  8.9491935361013197e-01  8.8187288111860762e-01  8.6885339519818283e-01  8.5586177426826948e-01  8.4289832835580791e-01  8.2996276431465221e