<?xml version="1.0"?>
<VTKFile type="UnstructuredGrid"  version="0.1"  >
<UnstructuredGrid>
<Piece  NumberOfPoints="2601" NumberOfCells="5000">
<Points>
<DataArray  type="Float64"  NumberOfComponents="3"  format="ascii">0 0 0  0.02 0 0  0.04 0 0  0.06 0 0  0.08 0 0  0.1 0 0  0.12 0 0  0.14 0 0  0.16 0 0  0.18 0 0  0.2 0 0  0.22 0 0  0.24 0 0  0.26 0 0  0.28 0 0  0.3 0 0  0.32 0 0  0.34 0 0  0.36 0 0  0.38 0 0  0.4 0 0  0.42 0 0  0.44 0 0  0.46 0 0  0.48 0 0  0.5 0 0  0.52 0 0  0.54 0 0  0.5600000000000001 0 0  0.58 0 0  0.6 0 0  0.62 0 0  0.64 0 0  0.66 0 0  0.68 0 0  0.7 0 0  0.72 0 0  0.74 0 0  0.76 0 0  0.78 0 0  0.8 0 0  0.82 0 0  0.84 0 0  0.86 0 0  0.88 0 0  0.9 0 0  0.92 0 0  0.9399999999999999 0 0  0.96 0 0  0.98 0 0  1 0 0  0 0.02 0  0.02 0.02 0  0.04 0.02 0  0.06 0.02 0  0.08 0.02 0  0.1 0.02 0  0.12 0.02 0  0.14 0.02 0  0.16 0.02 0  0.18 0.02 0  0.2 0.02 0  0.22 0.02 0  0.24 0.02 0  0.26 0.02 0  0.28 0.02 0  0.3 0.02 0  0.32 0.02 0  0.34 0.02 0  0.36 0.02 0  0.38 0.02 0  0.4 0.02 0  0.42 0.02 0  0.44 0.02 0  0.46 0.02 0  0.48 0.02 0  0.5 0.02 0  0.52 0.02 0  0.54 0.02 0  0.5600000000000001 0.02 0  0.58 0.02 0  0.6 0.02 0  0.62 0.02 0  0.64 0.02 0  0.66 0.02 0  0.68 0.02 0  0.7 0.02 0  0.72 0.02 0  0.74 0.02 0  0.76 0.02 0  0.78 0.02 0  0.8 0.02 0  0.82 0.02 0  0.84 0.02 0  0.86 0.02 0  0.88 0.02 0  0.9 0.02 0  0.92 0.02 0  0.9399999999999999 0.02 0  0.96 0.02 0  0.98 0.02 0  1 0.02 0  0 0.04 0  0.02 0.04 0  0.04 0.04 0  0.06 0.04 0  0.08 0.04 0  0.1 0.04 0  0.12 0.04 0  0.14 0.04 0  0.16 0.04 0  0.18 0.04 0  0.2 0.04 0  0.22 0.04 0  0.24 0.04 0  0.26 0.04 0  0.28 0.04 0  0.3 0.04 0  0.32 0.04 0  0.34 0.04 0  0.36 0.04 0  0.38 0.04 0  0.4 0.04 0  0.42 0.04 0  0.44 0.04 0  0.46 0.04 0  0.48 0.04 0  0.5 0.04 0  0.52 0.04 0  0.54 0.04 0  0.5600000000000001 0.04 0  0.58 0.04 0  0.6 0.04 0  0.62 0.04 0  0.64 0.04 0  0.66 0.04 0  0.68 0.04 0  0.7 0.04 0  0.72 0.04 0  0.74 0.04 0  0.76 0.04 0  0.78 0.04 0  0.8 0.04 0  0.82 0.04 0  0.84 0.04 0  0.86 0.04 0  0.88 0.04 0  0.9 0.04 0  0.92 0.04 0  0.9399999999999999 0.04 0  0.96 0.04 0  0.98 0.04 0  1 0.04 0  0 0.06 0  0.02 0.06 0  0.04 0.06 0  0.06 0.06 0  0.08 0.06 0  0.1 0.06 0  0.12 0.06 0  0.14 0.06 0  0.16 0.06 0  0.18 0.06 0  0.2 0.06 0  0.22 0.06 0  0.24 0.06 0  0.26 0.06 0  0.28 0.06 0  0.3 0.06 0  0.32 0.06 0  0.34 0.06 0  0.36 0.06 0  0.38 0.06 0  0.4 0.06 0  0.42 0.06 0  0.44 0.06 0  0.46 0.06 0  0.48 0.06 0  0.5 0.06 0  0.52 0.06 0  0.54 0.06 0  0.5600000000000001 0.06 0  0.58 0.06 0  0.6 0.06 0  0.62 0.06 0  0.64 0.06 0  0.66 0.06 0  0.68 0.06 0  0.7 0.06 0  0.72 0.06 0  0.74 0.06 0  0.76 0.06 0  0.78 0.06 0  0.8 0.06 0  0.82 0.06 0  0.84 0.06 0  0.86 0.06 0  0.88 0.06 0  0.9 0.06 0  0.92 0.06 0  0.9399999999999999 0.06 0  0.96 0.06 0  0.98 0.06 0  1 0.06 0  0 0.08 0  0.02 0.08 0  0.04 0.08 0  0.06 0.08 0  0.08 0.08 0  0.1 0.08 0  0.12 0.08 0  0.14 0.08 0  0.16 0.08 0  0.18 0.08 0  0.2 0.08 0  0.22 0.08 0  0.24 0.08 0  0.26 0.08 0  0.28 0.08 0  0.3 0.08 0  0.32 0.08 0  0.34 0.08 0  0.36 0.08 0  0.38 0.08 0  0.4 0.08 0  0.42 0.08 0  0.44 0.08 0  0.46 0.08 0  0.48 0.08 0  0.5 0.08 0  0.52 0.08 0  0.54 0.08 0  0.5600000000000001 0.08 0  0.58 0.08 0  0.6 0.08 0  0.62 0.08 0  0.64 0.08 0  0.66 0.08 0  0.68 0.08 0  0.7 0.08 0  0.72 0.08 0  0.74 0.08 0  0.76 0.08 0  0.78 0.08 0  0.8 0.08 0  0.82 0.08 0  0.84 0.08 0  0.86 0.08 0  0.88 0.08 0  0.9 0.08 0  0.92 0.08 0  0.9399999999999999 0.08 0  0.96 0.08 0  0.98 0.08 0  1 0.08 0  0 0.1 0  0.02 0.1 0  0.04 0.1 0  0.06 0.1 0  0.08 0.1 0  0.1 0.1 0  0.12 0.1 0  0.14 0.1 0  0.16 0.1 0  0.18 0.1 0  0.2 0.1 0  0.22 0.1 0  0.24 0.1 0  0.26 0.1 0  0.28 0.1 0  0.3 0.1 0  0.32 0.1 0  0.34 0.1 0  0.36 0.1 0  0.38 0.1 0  0.4 0.1 0  0.42 0.1 0  0.44 0.1 0  0.46 0.1 0  0.48 0.1 0  0.5 0.1 0  0.52 0.1 0  0.54 0.1 0  0.5600000000000001 0.1 0  0.58 0.1 0  0.6 0.1 0  0.62 0.1 0  0.64 0.1 0  0.66 0.1 0  0.68 0.1 0  0.7 0.1 0  0.72 0.1 0  0.74 0.1 0  0.76 0.1 0  0.78 0.1 0  0.8 0.1 0  0.82 0.1 0  0.84 0.1 0  0.86 0.1 0  0.88 0.1 0  0.9 0.1 0  0.92 0.1 0  0.9399999999999999 0.1 0  0.96 0.1 0  0.98 0.1 0  1 0.1 0  0 0.12 0  0.02 0.12 0  0.04 0.12 0  0.06 0.12 0  0.08 0.12 0  0.1 0.12 0  0.12 0.12 0  0.14 0.12 0  0.16 0.12 0  0.18 0.12 0  0.2 0.12 0  0.22 0.12 0  0.24 0.12 0  0.26 0.12 0  0.28 0.12 0  0.3 0.12 0  0.32 0.12 0  0.34 0.12 0  0.36 0.12 0  0.38 0.12 0  0.4 0.12 0  0.42 0.12 0  0.44 0.12 0  0.46 0.12 0  0.48 0.12 0  0.5 0.12 0  0.52 0.12 0  0.54 0.12 0  0.5600000000000001 0.12 0  0.58 0.12 0  0.6 0.12 0  0.62 0.12 0  0.64 0.12 0  0.66 0.12 0  0.68 0.12 0  0.7 0.12 0  0.72 0.12 0  0.74 0.12 0  0.76 0.12 0  0.78 0.12 0  0.8 0.12 0  0.82 0.12 0  0.84 0.12 0  0.86 0.12 0  0.88 0.12 0  0.9 0.12 0  0.92 0.12 0  0.9399999999999999 0.12 0  0.96 0.12 0  0.98 0.12 0  1 0.12 0  0 0.14 0  0.02 0.14 0  0.04 0.14 0  0.06 0.14 0  0.08 0.14 0  0.1 0.14 0  0.12 0.14 0  0.14 0.14 0  0.16 0.14 0  0.18 0.14 0  0.2 0.14 0  0.22 0.14 0  0.24 0.14 0  0.26 0.14 0  0.28 0.14 0  0.3 0.14 0  0.32 0.14 0  0.34 0.14 0  0.36 0.14 0  0.38 0.14 0  0.4 0.14 0  0.42 0.14 0  0.44 0.14 0  0.46 0.14 0  0.48 0.14 0  0.5 0.14 0  0.52 0.14 0  0.54 0.14 0  0.5600000000000001 0.14 0  0.58 0.14 0  0.6 0.14 0  0.62 0.14 0  0.64 0.14 0  0.66 0.14 0  0.68 0.14 0  0.7 0.14 0  0.72 0.14 0  0.74 0.14 0  0.76 0.14 0  0.78 0.14 0  0.8 0.14 0  0.82 0.14 0  0.84 0.14 0  0.86 0.14 0  0.88 0.14 0  0.9 0.14 0  0.92 0.14 0  0.9399999999999999 0.14 0  0.96 0.14 0  0.98 0.14 0  1 0.14 0  0 0.16 0  0.02 0.16 0  0.04 0.16 0  0.06 0.16 0  0.08 0.16 0  0.1 0.16 0  0.12 0.16 0  0.14 0.16 0  0.16 0.16 0  0.18 0.16 0  0.2 0.16 0  0.22 0.16 0  0.24 0.16 0  0.26 0.16 0  0.28 0.16 0  0.3 0.16 0  0.32 0.16 0  0.34 0.16 0  0.36 0.16 0  0.38 0.16 0  0.4 0.16 0  0.42 0.16 0  0.44 0.16 0  0.46 0.16 0  0.48 0.16 0  0.5 0.16 0  0.52 0.16 0  0.54 0.16 0  0.5600000000000001 0.16 0  0.58 0.16 0  0.6 0.16 0  0.62 0.16 0  0.64 0.16 0  0.66 0.16 0  0.68 0.16 0  0.7 0.16 0  0.72 0.16 0  0.74 0.16 0  0.76 0.16 0  0.78 0.16 0  0.8 0.16 0  0.82 0.16 0  0.84 0.16 0  0.86 0.16 0  0.88 0.16 0  0.9 0.16 0  0.92 0.16 0  0.9399999999999999 0.16 0  0.96 0.16 0  0.98 0.16 0  1 0.16 0  0 0.18 0  0.02 0.18 0  0.04 0.18 0  0.06 0.18 0  0.08 0.18 0  0.1 0.18 0  0.12 0.18 0  0.14 0.18 0  0.16 0.18 0  0.18 0.18 0  0.2 0.18 0  0.22 0.18 0  0.24 0.18 0  0.26 0.18 0  0.28 0.18 0  0.3 0.18 0  0.32 0.18 0  0.34 0.18 0  0.36 0.18 0  0.38 0.18 0  0.4 0.18 0  0.42 0.18 0  0.44 0.18 0  0.46 0.18 0  0.48 0.18 0  0.5 0.18 0  0.52 0.18 0  0.54 0.18 0  0.5600000000000001 0.18 0  0.58 0.18 0  0.6 0.18 0  0.62 0.18 0  0.64 0.18 0  0.66 0.18 0  0.68 0.18 0  0.7 0.18 0  0.72 0.18 0  0.74 0.18 0  0.76 0.18 0  0.78 0.18 0  0.8 0.18 0  0.82 0.18 0  0.84 0.18 0  0.86 0.18 0  0.88 0.18 0  0.9 0.18 0  0.92 0.18 0  0.9399999999999999 0.18 0  0.96 0.18 0  0.98 0.18 0  1 0.18 0  0 0.2 0  0.02 0.2 0  0.04 0.2 0  0.06 0.2 0  0.08 0.2 0  0.1 0.2 0  0.12 0.2 0  0.14 0.2 0  0.16 0.2 0  0.18 0.2 0  0.2 0.2 0  0.22 0.2 0  0.24 0.2 0  0.26 0.2 0  0.28 0.2 0  0.3 0.2 0  0.32 0.2 0  0.34 0.2 0  0.36 0.2 0  0.38 0.2 0  0.4 0.2 0  0.42 0.2 0  0.44 0.2 0  0.46 0.2 0  0.48 0.2 0  0.5 0.2 0  0.52 0.2 0  0.54 0.2 0  0.5600000000000001 0.2 0  0.58 0.2 0  0.6 0.2 0  0.62 0.2 0  0.64 0.2 0  0.66 0.2 0  0.68 0.2 0  0.7 0.2 0  0.72 0.2 0  0.74 0.2 0  0.76 0.2 0  0.78 0.2 0  0.8 0.2 0  0.82 0.2 0  0.84 0.2 0  0.86 0.2 0  0.88 0.2 0  0.9 0.2 0  0.92 0.2 0  0.9399999999999999 0.2 0  0.96 0.2 0  0.98 0.2 0  1 0.2 0  0 0.22 0  0.02 0.22 0  0.04 0.22 0  0.06 0.22 0  0.08 0.22 0  0.1 0.22 0  0.12 0.22 0  0.14 0.22 0  0.16 0.22 0  0.18 0.22 0  0.2 0.22 0  0.22 0.22 0  0.24 0.22 0  0.26 0.22 0  0.28 0.22 0  0.3 0.22 0  0.32 0.22 0  0.34 0.22 0  0.36 0.22 0  0.38 0.22 0  0.4 0.22 0  0.42 0.22 0  0.44 0.22 0  0.46 0.22 0  0.48 0.22 0  0.5 0.22 0  0.52 0.22 0  0.54 0.22 0  0.5600000000000001 0.22 0  0.58 0.22 0  0.6 0.22 0  0.62 0.22 0  0.64 0.22 0  0.66 0.22 0  0.68 0.22 0  0.7 0.22 0  0.72 0.22 0  0.74 0.22 0  0.76 0.22 0  0.78 0.22 0  0.8 0.22 0  0.82 0.22 0  0.84 0.22 0  0.86 0.22 0  0.88 0.22 0  0.9 0.22 0  0.92 0.22 0  0.9399999999999999 0.22 0  0.96 0.22 0  0.98 0.22 0  1 0.22 0  0 0.24 0  0.02 0.24 0  0.04 0.24 0  0.06 0.24 0  0.08 0.24 0  0.1 0.24 0  0.12 0.24 0  0.14 0.24 0  0.16 0.24 0  0.18 0.24 0  0.2 0.24 0  0.22 0.24 0  0.24 0.24 0  0.26 0.24 0  0.28 0.24 0  0.3 0.24 0  0.32 0.24 0  0.34 0.24 0  0.36 0.24 0  0.38 0.24 0  0.4 0.24 0  0.42 0.24 0  0.44 0.24 0  0.46 0.24 0  0.48 0.24 0  0.5 0.24 0  0.52 0.24 0  0.54 0.24 0  0.5600000000000001 0.24 0  0.58 0.24 0  0.6 0.24 0  0.62 0.24 0  0.64 0.24 0  0.66 0.24 0  0.68 0.24 0  0.7 0.24 0  0.72 0.24 0  0.74 0.24 0  0.76 0.24 0  0.78 0.24 0  0.8 0.24 0  0.82 0.24 0  0.84 0.24 0  0.86 0.24 0  0.88 0.24 0  0.9 0.24 0  0.92 0.24 0  0.9399999999999999 0.24 0  0.96 0.24 0  0.98 0.24 0  1 0.24 0  0 0.26 0  0.02 0.26 0  0.04 0.26 0  0.06 0.26 0  0.08 0.26 0  0.1 0.26 0  0.12 0.26 0  0.14 0.26 0  0.16 0.26 0  0.18 0.26 0  0.2 0.26 0  0.22 0.26 0  0.24 0.26 0  0.26 0.26 0  0.28 0.26 0  0.3 0.26 0  0.32 0.26 0  0.34 0.26 0  0.36 0.26 0  0.38 0.26 0  0.4 0.26 0  0.42 0.26 0  0.44 0.26 0  0.46 0.26 0  0.48 0.26 0  0.5 0.26 0  0.52 0.26 0  0.54 0.26 0  0.5600000000000001 0.26 0  0.58 0.26 0  0.6 0.26 0  0.62 0.26 0  0.64 0.26 0  0.66 0.26 0  0.68 0.26 0  0.7 0.26 0  0.72 0.26 0  0.74 0.26 0  0.76 0.26 0  0.78 0.26 0  0.8 0.26 0  0.82 0.26 0  0.84 0.26 0  0.86 0.26 0  0.88 0.26 0  0.9 0.26 0  0.92 0.26 0  0.9399999999999999 0.26 0  0.96 0.26 0  0.98 0.26 0  1 0.26 0  0 0.28 0  0.02 0.28 0  0.04 0.28 0  0.06 0.28 0  0.08 0.28 0  0.1 0.28 0  0.12 0.28 0  0.14 0.28 0  0.16 0.28 0  0.18 0.28 0  0.2 0.28 0  0.22 0.28 0  0.24 0.28 0  0.26 0.28 0  0.28 0.28 0  0.3 0.28 0  0.32 0.28 0  0.34 0.28 0  0.36 0.28 0  0.38 0.28 0  0.4 0.28 0  0.42 0.28 0  0.44 0.28 0  0.46 0.28 0  0.48 0.28 0  0.5 0.28 0  0.52 0.28 0  0.54 0.28 0  0.5600000000000001 0.28 0  0.58 0.28 0  0.6 0.28 0  0.62 0.28 0  0.64 0.28 0  0.66 0.28 0  0.68 0.28 0  0.7 0.28 0  0.72 0.28 0  0.74 0.28 0  0.76 0.28 0  0.78 0.28 0  0.8 0.28 0  0.82 0.28 0  0.84 0.28 0  0.86 0.28
[...]
<PointData  Scalars="f_17"> 
<DataArray  type="Float64"  Name="f_17"  format="ascii">1.0000000000000000e+00  9.8980381570990683e-01  9.7960086298450455e-01  9.6938373250040077e-01  9.5914435417265254e-01  9.4887395720662582e-01  9.3856303515479844e-01  9.2820131160691133e-01  9.1777770526558478e-01  9.0728029386731823e-01  8.9669627657151685e-01  8.8601193446539173e-01  8.7521258881520947e-01  8.6428255665796350e-01  8.5320510327773458e-01  8.4196239104816384e-01  8.3053542404493130e-01  8.1890398773702078e-01  8.0704658294891130e-01  7.9494035314244449e-01  7.8256100389010808e-01  7.6988271319196910e-01  7.5687803101474960e-01  7.4351776608805387e-01  7.2977085755881843e-01  7.1560422855276895e-01  7.0098261798301520e-01  6.8586838602859701e-01  6.7022128750686560e-01  6.5399820578011769e-01  6.3715283772142262e-01  6.1963531740273581e-01  6.0139176224308388e-01  5.8236371988831859e-01  5.6248748635275592e-01  5.4169325478345254e-01  5.1990403775132710e-01  4.9703428115022830e-01  4.7298804932848876e-01  4.4765659964787491e-01  4.2091506299022907e-01  3.9261777125190594e-01  3.6259145438368001e-01  3.3062491467526345e-01  2.9645250330451356e-01  2.5972577312601436e-01  2.1996002119783467e-01  1.7641959060985710e-01  1.2782727261958535e-01  7.1476504154320622e-02  0.0000000000000000e+00  1.0000000000000000e+00  9.8980730347615353e-01  9.7960783317967803e-01  9.6939421211623400e-01  9.5915839072595754e-01  9.4889161641593422e-01  9.3858440080253469e-01  9.2822648602511881e-01  9.1780681009117904e-01  9.0731347098539139e-01  8.9673368923395991e-01  8.8605376859340901e-01  8.7525905450380226e-01  8.6433388990716353e-01  8.5326156798188935e-01  8.4202428128192708e-01  8.3060306669338280e-01  8.1897774552812119e-01  8.0712685795987582e-01  7.9502759086841313e-01  7.8265569798474965e-01  7.6998541101677509e-01  7.5698934016863995e-01  7.4363836213415146e-01  7.2990149322441811e-01  7.1574574475671116e-01  7.0113595714901467e-01  6.8603460828387364e-01  6.7040159055770498e-01  6.5419394952197951e-01  6.3736557501442104e-01  6.1986683297503331e-01  6.0164412245523224e-01  5.8263933722903438e-01  5.6278920425081047e-01  5.4202446096383883e-01  5.2026881854715867e-01  4.9743763599855023e-01  4.7343619616471033e-01  4.4815742203603776e-01  4.2147878672909972e-01  3.9325802969800927e-01  3.6332704992042786e-01  3.3148291766759702e-01  2.9747416406160682e-01  2.6097907710979695e-01  2.2157030944472872e-01  1.7865750964390018e-01  1.3140737682912701e-01  7.8729038498079953e-02  1.9998666693333080e-02  1.0000000000000000e+00  9.8981777869266752e-01  9.7962882469546075e-01  9.6942581268769179e-01  9.5920074514401354e-01  9.4894492183103263e-01  9.3864890787317590e-01  9.2830250072913023e-01  9.1789469607307939e-01  9.0741365239917537e-01  8.9684665409060227e-01  8.8618007265056298e-01  8.7539932575474488e-01  8.6448883374351670e-01  8.5343197312319075e-01  8.4221102658656233e-01  8.3080712899119213e-01  8.1920020864666432e-01  8.0736892315569453e-01  7.9529058892396765e-01  7.8294110329408417e-01  7.7029485806241538e-01  7.5732464289424917e-01  7.4400153684954284e-01  7.3029478585201879e-01  7.1617166345593952e-01  7.0159731165776096e-01  6.8653455772365002e-01  6.7094370200362186e-01  6.5478227040321602e-01  6.3800472347911719e-01  6.2056211186847199e-01  6.0240166474344703e-01  5.8346629390256910e-01  5.6369399053336933e-01  5.4301708397051107e-01  5.2136132099316357e-01  4.9864470897320290e-01  4.7477604447880695e-01  4.4965301787399159e-01  4.2315974022747788e-01  3.9516347748688263e-01  3.6551029819280945e-01  3.3401926352235067e-01  3.0047480115544062e-01  2.6461733931727521e-01  2.2613426784758742e-01  1.8466049930163295e-01  1.3982127605010169e-01  9.1416813325288324e-02  3.9989334186634161e-02  1.0000000000000000e+00  9.8983520025268357e-01  9.7966374508565313e-01  9.6947839043149253e-01  9.5927122234361628e-01  9.4903362628116916e-01  9.3875625565658805e-01  9.2842899947983593e-01  9.1804094895629706e-01  9.0758036284409915e-01  8.9703463132909877e-01  8.8639023813680584e-01  8.7563272056389052e-01  8.6474662707264471e-01  8.5371547204645293e-01  8.4252168725055432e-01  8.3114656947787369e-01  8.1957022378191280e-01  8.0777150160459299e-01  7.9572793299278144e-01  7.8341565195830498e-01  7.7080931386657292e-01  7.5788200353084423e-01  7.4460513243304971e-01  7.3094832317521663e-01  7.1687927887195479e-01  7.0236363470298480e-01  6.8736478822810221e-01  6.7184370428954110e-01  6.5575868934182213e-01  6.3906512879592459e-01  6.2171517936399223e-01  6.0365740634122023e-01  5.8483635313605209e-01  5.6519202700655069e-01  5.4465928071714897e-01  5.2316706456756690e-01  5.0063751699407655e-01  4.7698485519816453e-01  4.5211402172944593e-01  4.2591904335674763e-01  3.9828107692215442e-01  3.6906618278510522e-01  3.3812305163715212e-01  3.0528138631522073e-01  2.7035280699211278e-01  2.3313889256095099e-01  1.9345702554098043e-01  1.5120636172203042e-01  1.0651118244571361e-01  5.9964006479444588e-02  1.0000000000000000e+00  9.8985949085664937e-01  9.7971243634845306e-01  9.6955170492330411e-01  9.5936949796760262e-01  9.4915731948225279e-01  9.3890594527742377e-01  9.2860539142685028e-01  9.1824488177564134e-01  9.0781281429099503e-01  8.9729672602238453e-01  8.8668325641005141e-01  8.7595810865025914e-01  8.6510600879178268e-01  8.5411066219887277e-01  8.4295470696980501e-01  8.3161966384537311e-01  8.2008588207638600e-01  8.0833248064112995e-01  7.9633728411016980e-01  7.8407675234347685e-01  7.7152590306967406e-01  7.5865822623424084e-01  7.4544558880677236e-01  7.3185812849952681e-01  7.1786413456162690e-01  7.0342991346483963e-01  6.8851963687556650e-01  6.7309516879967335e-01  6.5711586817776002e-01  6.4053836248556695e-01  6.2331628705106912e-01  6.0539998384602511e-01  5.8673615249038691e-01  5.6726744524123784e-01  5.4693199708917362e-01  5.2566288231122382e-01  5.0338749106252478e-01  4.8002682609542602e-01  4.5549473498388465e-01  4.2969712625380257e-01  4.0253128630149621e-01  3.7388555277864771e-01  3.4363987654178191e-01  3.1166834302484314e-01  2.7784573575211097e-01  2.4206199070141465e-01  2.0425100378861127e-01  1.6444250515022946e-01  1.2284174369642939e-01  7.9914693969172695e-02  1.0000000000000000e+00  9.8989054041566316e-01  9.7977467664794304e-01  9.6964542060948378e-01  9.5949512038036200e-01  9.4931543070233371e-01  9.3909728307953522e-01  9.2883085524814835e-01  9.1850553980374328e-01  9.0810991177761236e-01  8.9763169494187023e-01  8.8705772660435600e-01  8.7637392063122810e-01  8.6556522840806549e-01  8.5461559741879978e-01  8.4350792708503808e-01  8.3222402146526653e-01  8.2074453836285921e-01  8.0904893433242209e-01  7.9711540500427813e-01  7.8492082006507624e-01  7.7244065213675839e-01  7.5964889868428531e-01  7.4651799595257873e-01  7.3301872378305599e-01  7.1912009998862270e-01  7.0478926277286336e-01  6.8999133946697111e-01  6.7468929963378255e-01  6.5884379036787677e-01  6.4241295143456023e-01  6.2535220779525125e-01  6.0761403716374374e-01  5.8914771070641692e-01  5.6989900615385136e-01  5.4980989498058463e-01  5.2881820989245298e-01  5.0685730731241718e-01  4.8385575480449389e-01  4.5973710053102312e-01  4.3441982975192356e-01  4.0781769712091598e-01  3.7984076790479948e-01  3.5039774420042147e-01  3.1940054314056265e-01  2.8677267001044110e-01  2.5246362330985300e-01  2.1647195113064180e-01  1.7887828659684168e-01  1.3988365264629177e-01  9.9833416646828155e-02  1.0000000000000000e+00  9.8992820771062029e-01  9.7985018228649390e-01  9.6975910917333374e-01  9.5964751368419932e-01  9.4950723259108405e-01  9.3932938536856314e-01  9.2910434488937499e-01  9.1882170737902225e-01  9.0847026143674092e-01  8.9803795592302027e-01  8.8751186650134350e-01  8.7687816060537604e-01  8.6612206058318852e-01  8.5522780474718563e-01  8.4417860603206907e-01  8.3295660793294446e-01  8.2154283736118550e-01  8.0991715401651132e-01  7.9805819582956183e-01  7.8594331997994316e-01  7.7354853894044295e-01  7.6084845093954590e-01  7.4781616417313856e-01  7.3442321403543009e-01  7.2063947258400451e-01  7.0643304941368557e-01  6.9177018310359395e-01  6.7661512244578270e-01  6.6092999680146669e-01  6.4467467522497646e-01  6.2780661454663145e-01  6.1028069757414172e-01  5.9204906421440551e-01  5.7306094104413463e-01  5.5326247932637251e-01  5.3259661873401509e-01  5.1100300578260771e-01  4.8841801485613129e-01  4.6477494988054774e-01  4.4000455242888026e-01  4.1403601626081149e-01  3.8679882029319079e-01  3.5822585208466617e-01  3.2825849994444684e-01  2.9685459860855301e-01  2.6400016562231882e-01  2.2972537885462699e-01  1.9412348280791489e-01  1.5736733312644280e-01  1.1971220728891938e-01  1.0000000000000000e+00  9.8997232165294935e-01  9.7993860984749037e-01  9.6989225249963051e-01  9.5982598159354915e-01  9.4973184607330718e-01  9.3960118442909457e-01  9.2942459681091216e-01  9.1919191650212639e-01  9.0889218058367993e-01  8.9851359961493538e-01  8.8804352614932203e-01  8.7746842189263430e-01  8.6677382329952879e-01  8.5594430538972965e-01  8.4496344354989184e-01  8.3381377307011495e-01  8.2247674614610844e-01  8.1093268605936963e-01  7.9916073822929445e-01  7.8713881781415240e-01  7.7484355352437473e-01  7.6225022730468628e-01  7.4933270954604947e-01  7.3606338951131212e-01  7.2241310071067255e-01  7.0835104106065194e-01  6.9384468782747899e-01  6.7885970762866765e-01  6.6335986219938714e-01  6.4730691130411844e-01  6.3066051521110555e-01  6.1337814073052155e-01  5.9541497722270098e-01  5.7672387262378244e-01  5.5725530503074183e-01  5.3695741365148719e-01  5.1577612529337746e-01  4.9365543092836633e-01  4.7053789379113820e-01  4.4636550907893524e-01  4.2108108872986771e-01  3.9463041405301463e-01  3.6696547836212234e-01  3.3804920803518618e-01  3.0786204360285152e-01  2.7641055701689282e-01  2.4373766262818397e-01  2.0993268495500195e-01  1.7513751492259605e-01  1.3954311464423649e-01  1.0000000000000000e+00  9.9002268252569881e-01  9.8003955856855818e-01  9.7004424614954510e-01  9.6002971205743137e-01  9.4998824620213063e-01  9.3991143571015723e-01  9.2979013862325910e-01  9.1961445705919576e-01  9.0937370969200060e-01  8.9905640340656134e-01  8.8865020397864469e-01  8.7814190562684669e-01  8.6751739927770377e-01  8.5676163937985406e-01  8.4585860909816224e-01  8.3479128371479716e-01  8.2354159206223831e-01  8.1209037581430721e-01  8.0041734646730889e-01  7.8850103985670383e-01  7.7631876807890443e-01  7.6384656872779599e-01  7.5105915141853086e-01  7.3792984166709275e-01  7.2443052233751204e-01  7.1053157307989334e-01  6.9620180849093416e-01  6.8140841617624082e-01  6.6611689654049477e-01  6.5029100706325149e-01  6.3389271515777501e-01  6.1688216563313381e-01  5.9921767153480932e-01  5.8085574107648363e-01  5.6175115898079653e-01  5.4185714847534028e-01  5.2112565129117683e-01  4.9950777830328458e-01  4.7695450397667755e-01  4.5341770417612498e-01  4.2885166840161226e-01  4.0321524991782615e-01  3.7647483910606167e-01  3.4860833186298923e-01  3.1961016994110808e-01  2.8949728156483989e-01  2.5831526278231082e-01  2.2614337500180634e-01  1.9309605288299506e-01  1.5931820661424598e-01  1.0000000000000000e+00  9.9007906331390516e-01  9.8015257297576630e-01  9.7021440330013131e-01  9.6025778254697525e-01  9.5027526887033842e-01  9.4025872606147576e-01  9.3019929897275844e-01  9.2008738850738381e-01  9.0991262605968048e-01  8.9966384729086357e-01  8.8932906512530385e-01  8.7889544185298873e-01  8.6834926022523029e-01  8.5767589343348838e-01  8.4685977386616307e-01  8.3588436054641779e-01  8.2473210516685291e-01  8.1338441665598904e-01  8.0182162423947956e-01  7.9002293899910347e-01  7.7796641398946087e-01  7.6562890305210196e-01  7.5298601857819747e-01  7.4001208862544587e-01  7.2668011400895649e-01  7.1296172628150178e-01  6.9882714792649225e-01  6.8424515664938157e-01  6.6918305642803166e-01  6.5360665904922199e-01  6.3748028132538304e-01  6.2076676519891105e-01  6.0342753069581012e-01  5.8542267543895332e-01  5.6671113949119400e-01  5.4725096104270210e-01  5.2699965727256814e-01  5.0591477589313372e-01  4.8395467637829859e-01  4.6107961481293558e-01  4.3725322010899359e-01  4.1244445629757848e-01  3.8663015476607282e-01  3.5979815309256175e-01  3.3195096629553578e-01  3.0310971032856465e-01  2.7331767834776954e-01  2.4264257383704080e-01  2.1117608611008995e-01  1.7902957342582418e-01  1.0000000000000000e+00  9.9014121115079390e-01  9.8027714577733593e-01  9.7040195910563498e-01  9.6050916593223479e-01  9.5059161827874727e-01  9.4064148289598204e-01  9.3065021852736318e-01  9.2060855284184417e-01  9.1050645894823079e-01  9.0033313140562210e-01  8.9007696164861050e-01  8.7972551275130451e-01  8.6926549346164539e-01  8.5868273144768192e-01  8.4796214571137718e-01  8.3708771814453031e-01  8.2604246422709904e-01  8.1480840290292311e-01  8.0336652571442879e-01  7.9169676534027456e-01  7.7977796376320974e-01  7.6758784040650685e-01  7.5510296072535632e-01  7.4229870593671332e-01  7.2914924483354604e-01  7.1562750897885230e-01  7.0170517304001934e-01  6.8735264264323837e-01  6.7253905295107563e-01  6.5723228225962471e-01  6.4139898635954207e-01  6.2500466131440890e-01  6.0801374481045722e-01  5.9038976947422384e-01  5.7209558569656715e-01  5.5309367667404785e-01  5.3334659461768719e-01  5.1281755419228059e-01  4.9147122658190528e-01  4.6927478362543235e-01  4.4619924329576077e-01  4.2222116027706325e-01  3.9732468042630426e-01  3.7150392421665324e-01  3.4476556905788647e-01  3.1713135513280460e-01  2.8864005248628349e-01  2.5934824421083330e-01  2.2932920431346868e-01  1.9866933079506122e-01  1.0000000000000000e+00  9.9020884887850846e-01  9.8041272099678511e-01  9.7060607543273314e-01  9.6078273687227722e-01  9.5093587505907495e-01  9.4105798414946940e-01  9.3114086190452627e-01  9.2117558865330562e-01  9.1115250596533748e-01  9.0106119497570114e-01  8.9089045431345981e-01  8.8062827759389684e-01  8.7026183044768379e-01  8.5977742707667582e-01  8.4916050634759388e-01  8.3839560746293718e-01  8.2746634528492791e-01  8.1635538543561870e-01  8.0504441935762361e-01  7.9351413959941963e-01  7.8174421569204244e-01  7.6971327111724475e-01  7.5739886203970652e-01  7.4477745869922929e-01  7.3182443064811309e-01  7.1851403739326836e-01  7.0481942648693041e-01  6.9071264173544511e-01  6.7616464500186424e-01  6.6114535611345626e-01  6.4562371670741459e-01  6.2956778552281412e-01  6.1294487474324466e-01  5.9572173957359131e-01  5.7786483632692021e-01  5.5934066786265280e-01  5.4011623907186457e-01  5.2015964880830956e-01  4.9944084733949590e-01  4.7793258848656817e-01  4.5561160060419686e-01  4.3245998664836155e-01  4.0846683575611409e-01  3.8362998139418752e-01  3.5795777010221591e-01  3.3147061192525396e-01  3.0420198347135763e-01  2.7619848256333851e-01  2.4751854792975761e-01  2.1822962308086932e-01  1.0000000000000000e+00  9.9028167671167711e-01  9.8055869731583967e-01  9.7082584591696164e-01  9.6107727864061787e-01  9.5130650494731583e-01  9.4150636890598594e-01  9.3166903037979421e-01  9.2178594608089681e-01  9.1184785045650762e-01  9.0184473637648011e-01  8.9176583560290956e-01  8.8159959903559493e-01  8.7133367674428164e-01  8.6095489782038670e-01  8.5044925010866768e-01  8.3980185991453882e-01  8.2899697182748955e-01  8.1801792885785940e-01  8.0684715315619426e-01  7.9546612767565583e-01  7.8385537925355331e-01  7.7199446373449565e-01  7.5986195394306921e-01  7.4743543154859737e-01  7.3469148416123264e-01  7.2160570937324264e-01  7.0815272793133477e-01  6.9430620881855531e-01  6.8003890976508552e-01  6.6532273762688732e-01  6.5012883420186840e-01  6.3442769442463542e-01  6.1818932551197792e-01  6.0138345751601352e-01  5.8397981782576558e-01  5.6594848429908684e-01  5.4726033361848136e-01  5.2788760263191781e-01  5.0780458001291917e-01  4.8698844224563198e-01  4.6542023984930581e-01  4.4308602450420009e-01  4.1997808268419207e-01  3.9609620447613575e-01  3.7144886764235208e-01  3.4605416170448056e-01  3.1994022799128841e-01  2.9314497230221942e-01  2.6571484726729133e-01  2.3770262642713458e-01  1.0000000000000000e+00  9.9035937398804519e-01  9.8071443159293747e-01  9.7106030128485743e-01  9.6139149030709703e-01  9.5170186790358424e-01  9.4198464855780850e-01  9.3223237521511948e-01  9.2243690246568455e-01  9.1258937967281184e-01  9.0268023404115061e-01  8.9269915363201857e-01  8.8263507034933986e-01  8.7247614294017362e-01  8.6220974007962481e-01  8.5182242364226168e-01  8.4129993230260647e-01  8.3062716565780048e-01  8.1978816912859287e-01  8.0876611997340120e-01  7.9754331484808605e-01  7.8610115946592352e-01  7.7442016106370459e-01  7.6247992456798075e-01  7.5025915358855333e-01  7.3773565765461679e-01  7.2488636746435120e-01  7.1168736035507152e-01  6.9811389873344598e-01  6.8414048484985657e-01  6.6974093607260687e-01  6.5488848572734226e-01  6.3955591561612946e-01  6.2371572750230631e-01  6.0734036209245967e-01  5.9040247526381429e-01  5.7287528228918083e-01  5.5473298129482662e-01  5.3595126666922666e-01  5.1650794091868912e-01  4.9638362857522339e-01  4.7556258699545056e-01  4.5403359493103146e-01  4.3179087952556600e-01  4.0883501573964626e-01  3.8517370094554487e-01  3.6082227671079259e-01  3.3580384917525846e-01  3.1014886263655889e-01  2.8389402254557111e-01  2.5708055189215512e-01  1.0000000000000000e+00  9.9044160098895584e-01  9.8087924252158121e-01  9.7130841488573294e-01  9.6172399419798815e-01  9.5212022757627446e-01  9.4249071837183340e-01  9.3282841145004447e-01  9.2312557851600108e-01  9.1337380348944275e-01  9.0356396794496885e-01  8.9368623664802871e-01  8.8373004323552151e-01  8.7368407611278176e-01  8.6353626466727551e-01  8.5327376593468629e-01  8.4288295189674756e-01  8.3234939764403826e-01  8.2165787070325358e-01  8.1079232190990336e-01  7.9973587830733261e-01  7.8847083867531986e-01  7.7697867244103480e-01  7.6524002290741377e-01  7.5323471595544578e-01  7.4094177564478825e-01  7.2833944845958942e-01  7.1540523833172742e-01  7.0211595502985880e-01  6.8844777903598420e-01  6.7437634664398816e-01  6.5987685970178844e-01  6.4492422516233550e-01  6.2949323036995286e-01  6.1355876071615145e-01  5.9709606683374361e-01  5.8008108867232266e-01  5.6249084333287558e-01  5.4430388204094260e-01  5.2550081858466902e-01  5.0606492629874189e-01  4.8598279254913762e-01  4.6524500808481345e-01  4.4384685338873081e-01  4.2178892595846118e-01  3.9907763340499164e-01  3.7572546152241448e-01  3.5175092037029304e-01  3.2717808256984021e-01  3.0203566294547046e-01  2.7635564856411376e-01  1.0000000000000000e+00  9.9052800081226833e-01  9.8105241439299606e-01  9.7156910837818578e-01  9.6207334355863949e-01  9.5255976101240836e-01  9.4302236933985806e-01  9.3345453200646100e-01  9.2384895480552831e-01  9.1419767346269321e-01  9.0449204141631856e-01  8.9472271782374557e-01  8.8487965586297679e-01  8.7495209142377139e-01  8.6492853231219446e-01  8.5479674812953355e-01  8.4454376103154449e-01  8.3415583762894208e-01  8.2361848235682888e-01  8.1291643272176350e-01  8.0203365693316153e-01  7.9095335454389659e-01  7.7965796086701189e-01  7.6812915610545529e-01  7.5634788033423173e-01  7.4429435571390268e-01  7.3194811759547929e-01  7.1928805650319394e-01  7.0629247335529666e-01  6.9293915070274770e-01  6.7920544322465193e-01  6.6506839120185424e-01  6.5050486116710937e-01  6.3549171835232143e-01  6.2000603584268410e-01  6.0402534538756836e-01  5.8752793444166251e-01  5.7049319298962120e-01  5.5290201174977149e-01  5.3473723010589935e-01  5.1598412720442821e-01  4.9663094275077668e-01  4.7666940500164878e-01  4.5609523253146844e-01  4.3490856447127857e-01  4.1311426295016801e-01  3.9072202440029868e-01  3.6774623713427584e-01  3.4420553521123465e-01  3.2012202566259212e-01  2.9552020666133955e-01  1.0000000000000000e+00  9.9061820128091260e-01  9.8123320092898469e-01  9.7184125751908390e-01  9.6243803034710318e-01  9.5301856852195943e-01  9.4357730019825115e-01  9.3410802196814924e-01  9.2460388843863117e-01  9.1505740203023289e-01  9.0546040304641284e-01  8.9580406007892555e-01  8.8607886083482501e-01  8.7627460349562858e