<?xml version="1.0"?>
<VTKFile type="UnstructuredGrid"  version="0.1"  >
<UnstructuredGrid>
<Piece  NumberOfPoints="2601" NumberOfCells="5000">
<Points>
<DataArray  type="Float64"  NumberOfComponents="3"  format="ascii">0 0 0  0.02 0 0  0.04 0 0  0.06 0 0  0.08 0 0  0.1 0 0  0.12 0 0  0.14 0 0  0.16 0 0  0.18 0 0  0.2 0 0  0.22 0 0  0.24 0 0  0.26 0 0  0.28 0 0  0.3 0 0  0.32 0 0  0.34 0 0  0.36 0 0  0.38 0 0  0.4 0 0  0.42 0 0  0.44 0 0  0.46 0 0  0.48 0 0  0.5 0 0  0.52 0 0  0.54 0 0  0.5600000000000001 0 0  0.58 0 0  0.6 0 0  0.62 0 0  0.64 0 0  0.66 0 0  0.68 0 0  0.7 0 0  0.72 0 0  0.74 0 0  0.76 0 0  0.78 0 0  0.8 0 0  0.82 0 0  0.84 0 0  0.86 0 0  0.88 0 0  0.9 0 0  0.92 0 0  0.9399999999999999 0 0  0.96 0 0  0.98 0 0  1 0 0  0 0.02 0  0.02 0.02 0  0.04 0.02 0  0.06 0.02 0  0.08 0.02 0  0.1 0.02 0  0.12 0.02 0  0.14 0.02 0  0.16 0.02 0  0.18 0.02 0  0.2 0.02 0  0.22 0.02 0  0.24 0.02 0  0.26 0.02 0  0.28 0.02 0  0.3 0.02 0  0.32 0.02 0  0.34 0.02 0  0.36 0.02 0  0.38 0.02 0  0.4 0.02 0  0.42 0.02 0  0.44 0.02 0  0.46 0.02 0  0.48 0.02 0  0.5 0.02 0  0.52 0.02 0  0.54 0.02 0  0.5600000000000001 0.02 0  0.58 0.02 0  0.6 0.02 0  0.62 0.02 0  0.64 0.02 0  0.66 0.02 0  0.68 0.02 0  0.7 0.02 0  0.72 0.02 0  0.74 0.02 0  0.76 0.02 0  0.78 0.02 0  0.8 0.02 0  0.82 0.02 0  0.84 0.02 0  0.86 0.02 0  0.88 0.02 0  0.9 0.02 0  0.92 0.02 0  0.9399999999999999 0.02 0  0.96 0.02 0  0.98 0.02 0  1 0.02 0  0 0.04 0  0.02 0.04 0  0.04 0.04 0  0.06 0.04 0  0.08 0.04 0  0.1 0.04 0  0.12 0.04 0  0.14 0.04 0  0.16 0.04 0  0.18 0.04 0  0.2 0.04 0  0.22 0.04 0  0.24 0.04 0  0.26 0.04 0  0.28 0.04 0  0.3 0.04 0  0.32 0.04 0  0.34 0.04 0  0.36 0.04 0  0.38 0.04 0  0.4 0.04 0  0.42 0.04 0  0.44 0.04 0  0.46 0.04 0  0.48 0.04 0  0.5 0.04 0  0.52 0.04 0  0.54 0.04 0  0.5600000000000001 0.04 0  0.58 0.04 0  0.6 0.04 0  0.62 0.04 0  0.64 0.04 0  0.66 0.04 0  0.68 0.04 0  0.7 0.04 0  0.72 0.04 0  0.74 0.04 0  0.76 0.04 0  0.78 0.04 0  0.8 0.04 0  0.82 0.04 0  0.84 0.04 0  0.86 0.04 0  0.88 0.04 0  0.9 0.04 0  0.92 0.04 0  0.9399999999999999 0.04 0  0.96 0.04 0  0.98 0.04 0  1 0.04 0  0 0.06 0  0.02 0.06 0  0.04 0.06 0  0.06 0.06 0  0.08 0.06 0  0.1 0.06 0  0.12 0.06 0  0.14 0.06 0  0.16 0.06 0  0.18 0.06 0  0.2 0.06 0  0.22 0.06 0  0.24 0.06 0  0.26 0.06 0  0.28 0.06 0  0.3 0.06 0  0.32 0.06 0  0.34 0.06 0  0.36 0.06 0  0.38 0.06 0  0.4 0.06 0  0.42 0.06 0  0.44 0.06 0  0.46 0.06 0  0.48 0.06 0  0.5 0.06 0  0.52 0.06 0  0.54 0.06 0  0.5600000000000001 0.06 0  0.58 0.06 0  0.6 0.06 0  0.62 0.06 0  0.64 0.06 0  0.66 0.06 0  0.68 0.06 0  0.7 0.06 0  0.72 0.06 0  0.74 0.06 0  0.76 0.06 0  0.78 0.06 0  0.8 0.06 0  0.82 0.06 0  0.84 0.06 0  0.86 0.06 0  0.88 0.06 0  0.9 0.06 0  0.92 0.06 0  0.9399999999999999 0.06 0  0.96 0.06 0  0.98 0.06 0  1 0.06 0  0 0.08 0  0.02 0.08 0  0.04 0.08 0  0.06 0.08 0  0.08 0.08 0  0.1 0.08 0  0.12 0.08 0  0.14 0.08 0  0.16 0.08 0  0.18 0.08 0  0.2 0.08 0  0.22 0.08 0  0.24 0.08 0  0.26 0.08 0  0.28 0.08 0  0.3 0.08 0  0.32 0.08 0  0.34 0.08 0  0.36 0.08 0  0.38 0.08 0  0.4 0.08 0  0.42 0.08 0  0.44 0.08 0  0.46 0.08 0  0.48 0.08 0  0.5 0.08 0  0.52 0.08 0  0.54 0.08 0  0.5600000000000001 0.08 0  0.58 0.08 0  0.6 0.08 0  0.62 0.08 0  0.64 0.08 0  0.66 0.08 0  0.68 0.08 0  0.7 0.08 0  0.72 0.08 0  0.74 0.08 0  0.76 0.08 0  0.78 0.08 0  0.8 0.08 0  0.82 0.08 0  0.84 0.08 0  0.86 0.08 0  0.88 0.08 0  0.9 0.08 0  0.92 0.08 0  0.9399999999999999 0.08 0  0.96 0.08 0  0.98 0.08 0  1 0.08 0  0 0.1 0  0.02 0.1 0  0.04 0.1 0  0.06 0.1 0  0.08 0.1 0  0.1 0.1 0  0.12 0.1 0  0.14 0.1 0  0.16 0.1 0  0.18 0.1 0  0.2 0.1 0  0.22 0.1 0  0.24 0.1 0  0.26 0.1 0  0.28 0.1 0  0.3 0.1 0  0.32 0.1 0  0.34 0.1 0  0.36 0.1 0  0.38 0.1 0  0.4 0.1 0  0.42 0.1 0  0.44 0.1 0  0.46 0.1 0  0.48 0.1 0  0.5 0.1 0  0.52 0.1 0  0.54 0.1 0  0.5600000000000001 0.1 0  0.58 0.1 0  0.6 0.1 0  0.62 0.1 0  0.64 0.1 0  0.66 0.1 0  0.68 0.1 0  0.7 0.1 0  0.72 0.1 0  0.74 0.1 0  0.76 0.1 0  0.78 0.1 0  0.8 0.1 0  0.82 0.1 0  0.84 0.1 0  0.86 0.1 0  0.88 0.1 0  0.9 0.1 0  0.92 0.1 0  0.9399999999999999 0.1 0  0.96 0.1 0  0.98 0.1 0  1 0.1 0  0 0.12 0  0.02 0.12 0  0.04 0.12 0  0.06 0.12 0  0.08 0.12 0  0.1 0.12 0  0.12 0.12 0  0.14 0.12 0  0.16 0.12 0  0.18 0.12 0  0.2 0.12 0  0.22 0.12 0  0.24 0.12 0  0.26 0.12 0  0.28 0.12 0  0.3 0.12 0  0.32 0.12 0  0.34 0.12 0  0.36 0.12 0  0.38 0.12 0  0.4 0.12 0  0.42 0.12 0  0.44 0.12 0  0.46 0.12 0  0.48 0.12 0  0.5 0.12 0  0.52 0.12 0  0.54 0.12 0  0.5600000000000001 0.12 0  0.58 0.12 0  0.6 0.12 0  0.62 0.12 0  0.64 0.12 0  0.66 0.12 0  0.68 0.12 0  0.7 0.12 0  0.72 0.12 0  0.74 0.12 0  0.76 0.12 0  0.78 0.12 0  0.8 0.12 0  0.82 0.12 0  0.84 0.12 0  0.86 0.12 0  0.88 0.12 0  0.9 0.12 0  0.92 0.12 0  0.9399999999999999 0.12 0  0.96 0.12 0  0.98 0.12 0  1 0.12 0  0 0.14 0  0.02 0.14 0  0.04 0.14 0  0.06 0.14 0  0.08 0.14 0  0.1 0.14 0  0.12 0.14 0  0.14 0.14 0  0.16 0.14 0  0.18 0.14 0  0.2 0.14 0  0.22 0.14 0  0.24 0.14 0  0.26 0.14 0  0.28 0.14 0  0.3 0.14 0  0.32 0.14 0  0.34 0.14 0  0.36 0.14 0  0.38 0.14 0  0.4 0.14 0  0.42 0.14 0  0.44 0.14 0  0.46 0.14 0  0.48 0.14 0  0.5 0.14 0  0.52 0.14 0  0.54 0.14 0  0.5600000000000001 0.14 0  0.58 0.14 0  0.6 0.14 0  0.62 0.14 0  0.64 0.14 0  0.66 0.14 0  0.68 0.14 0  0.7 0.14 0  0.72 0.14 0  0.74 0.14 0  0.76 0.14 0  0.78 0.14 0  0.8 0.14 0  0.82 0.14 0  0.84 0.14 0  0.86 0.14 0  0.88 0.14 0  0.9 0.14 0  0.92 0.14 0  0.9399999999999999 0.14 0  0.96 0.14 0  0.98 0.14 0  1 0.14 0  0 0.16 0  0.02 0.16 0  0.04 0.16 0  0.06 0.16 0  0.08 0.16 0  0.1 0.16 0  0.12 0.16 0  0.14 0.16 0  0.16 0.16 0  0.18 0.16 0  0.2 0.16 0  0.22 0.16 0  0.24 0.16 0  0.26 0.16 0  0.28 0.16 0  0.3 0.16 0  0.32 0.16 0  0.34 0.16 0  0.36 0.16 0  0.38 0.16 0  0.4 0.16 0  0.42 0.16 0  0.44 0.16 0  0.46 0.16 0  0.48 0.16 0  0.5 0.16 0  0.52 0.16 0  0.54 0.16 0  0.5600000000000001 0.16 0  0.58 0.16 0  0.6 0.16 0  0.62 0.16 0  0.64 0.16 0  0.66 0.16 0  0.68 0.16 0  0.7 0.16 0  0.72 0.16 0  0.74 0.16 0  0.76 0.16 0  0.78 0.16 0  0.8 0.16 0  0.82 0.16 0  0.84 0.16 0  0.86 0.16 0  0.88 0.16 0  0.9 0.16 0  0.92 0.16 0  0.9399999999999999 0.16 0  0.96 0.16 0  0.98 0.16 0  1 0.16 0  0 0.18 0  0.02 0.18 0  0.04 0.18 0  0.06 0.18 0  0.08 0.18 0  0.1 0.18 0  0.12 0.18 0  0.14 0.18 0  0.16 0.18 0  0.18 0.18 0  0.2 0.18 0  0.22 0.18 0  0.24 0.18 0  0.26 0.18 0  0.28 0.18 0  0.3 0.18 0  0.32 0.18 0  0.34 0.18 0  0.36 0.18 0  0.38 0.18 0  0.4 0.18 0  0.42 0.18 0  0.44 0.18 0  0.46 0.18 0  0.48 0.18 0  0.5 0.18 0  0.52 0.18 0  0.54 0.18 0  0.5600000000000001 0.18 0  0.58 0.18 0  0.6 0.18 0  0.62 0.18 0  0.64 0.18 0  0.66 0.18 0  0.68 0.18 0  0.7 0.18 0  0.72 0.18 0  0.74 0.18 0  0.76 0.18 0  0.78 0.18 0  0.8 0.18 0  0.82 0.18 0  0.84 0.18 0  0.86 0.18 0  0.88 0.18 0  0.9 0.18 0  0.92 0.18 0  0.9399999999999999 0.18 0  0.96 0.18 0  0.98 0.18 0  1 0.18 0  0 0.2 0  0.02 0.2 0  0.04 0.2 0  0.06 0.2 0  0.08 0.2 0  0.1 0.2 0  0.12 0.2 0  0.14 0.2 0  0.16 0.2 0  0.18 0.2 0  0.2 0.2 0  0.22 0.2 0  0.24 0.2 0  0.26 0.2 0  0.28 0.2 0  0.3 0.2 0  0.32 0.2 0  0.34 0.2 0  0.36 0.2 0  0.38 0.2 0  0.4 0.2 0  0.42 0.2 0  0.44 0.2 0  0.46 0.2 0  0.48 0.2 0  0.5 0.2 0  0.52 0.2 0  0.54 0.2 0  0.5600000000000001 0.2 0  0.58 0.2 0  0.6 0.2 0  0.62 0.2 0  0.64 0.2 0  0.66 0.2 0  0.68 0.2 0  0.7 0.2 0  0.72 0.2 0  0.74 0.2 0  0.76 0.2 0  0.78 0.2 0  0.8 0.2 0  0.82 0.2 0  0.84 0.2 0  0.86 0.2 0  0.88 0.2 0  0.9 0.2 0  0.92 0.2 0  0.9399999999999999 0.2 0  0.96 0.2 0  0.98 0.2 0  1 0.2 0  0 0.22 0  0.02 0.22 0  0.04 0.22 0  0.06 0.22 0  0.08 0.22 0  0.1 0.22 0  0.12 0.22 0  0.14 0.22 0  0.16 0.22 0  0.18 0.22 0  0.2 0.22 0  0.22 0.22 0  0.24 0.22 0  0.26 0.22 0  0.28 0.22 0  0.3 0.22 0  0.32 0.22 0  0.34 0.22 0  0.36 0.22 0  0.38 0.22 0  0.4 0.22 0  0.42 0.22 0  0.44 0.22 0  0.46 0.22 0  0.48 0.22 0  0.5 0.22 0  0.52 0.22 0  0.54 0.22 0  0.5600000000000001 0.22 0  0.58 0.22 0  0.6 0.22 0  0.62 0.22 0  0.64 0.22 0  0.66 0.22 0  0.68 0.22 0  0.7 0.22 0  0.72 0.22 0  0.74 0.22 0  0.76 0.22 0  0.78 0.22 0  0.8 0.22 0  0.82 0.22 0  0.84 0.22 0  0.86 0.22 0  0.88 0.22 0  0.9 0.22 0  0.92 0.22 0  0.9399999999999999 0.22 0  0.96 0.22 0  0.98 0.22 0  1 0.22 0  0 0.24 0  0.02 0.24 0  0.04 0.24 0  0.06 0.24 0  0.08 0.24 0  0.1 0.24 0  0.12 0.24 0  0.14 0.24 0  0.16 0.24 0  0.18 0.24 0  0.2 0.24 0  0.22 0.24 0  0.24 0.24 0  0.26 0.24 0  0.28 0.24 0  0.3 0.24 0  0.32 0.24 0  0.34 0.24 0  0.36 0.24 0  0.38 0.24 0  0.4 0.24 0  0.42 0.24 0  0.44 0.24 0  0.46 0.24 0  0.48 0.24 0  0.5 0.24 0  0.52 0.24 0  0.54 0.24 0  0.5600000000000001 0.24 0  0.58 0.24 0  0.6 0.24 0  0.62 0.24 0  0.64 0.24 0  0.66 0.24 0  0.68 0.24 0  0.7 0.24 0  0.72 0.24 0  0.74 0.24 0  0.76 0.24 0  0.78 0.24 0  0.8 0.24 0  0.82 0.24 0  0.84 0.24 0  0.86 0.24 0  0.88 0.24 0  0.9 0.24 0  0.92 0.24 0  0.9399999999999999 0.24 0  0.96 0.24 0  0.98 0.24 0  1 0.24 0  0 0.26 0  0.02 0.26 0  0.04 0.26 0  0.06 0.26 0  0.08 0.26 0  0.1 0.26 0  0.12 0.26 0  0.14 0.26 0  0.16 0.26 0  0.18 0.26 0  0.2 0.26 0  0.22 0.26 0  0.24 0.26 0  0.26 0.26 0  0.28 0.26 0  0.3 0.26 0  0.32 0.26 0  0.34 0.26 0  0.36 0.26 0  0.38 0.26 0  0.4 0.26 0  0.42 0.26 0  0.44 0.26 0  0.46 0.26 0  0.48 0.26 0  0.5 0.26 0  0.52 0.26 0  0.54 0.26 0  0.5600000000000001 0.26 0  0.58 0.26 0  0.6 0.26 0  0.62 0.26 0  0.64 0.26 0  0.66 0.26 0  0.68 0.26 0  0.7 0.26 0  0.72 0.26 0  0.74 0.26 0  0.76 0.26 0  0.78 0.26 0  0.8 0.26 0  0.82 0.26 0  0.84 0.26 0  0.86 0.26 0  0.88 0.26 0  0.9 0.26 0  0.92 0.26 0  0.9399999999999999 0.26 0  0.96 0.26 0  0.98 0.26 0  1 0.26 0  0 0.28 0  0.02 0.28 0  0.04 0.28 0  0.06 0.28 0  0.08 0.28 0  0.1 0.28 0  0.12 0.28 0  0.14 0.28 0  0.16 0.28 0  0.18 0.28 0  0.2 0.28 0  0.22 0.28 0  0.24 0.28 0  0.26 0.28 0  0.28 0.28 0  0.3 0.28 0  0.32 0.28 0  0.34 0.28 0  0.36 0.28 0  0.38 0.28 0  0.4 0.28 0  0.42 0.28 0  0.44 0.28 0  0.46 0.28 0  0.48 0.28 0  0.5 0.28 0  0.52 0.28 0  0.54 0.28 0  0.5600000000000001 0.28 0  0.58 0.28 0  0.6 0.28 0  0.62 0.28 0  0.64 0.28 0  0.66 0.28 0  0.68 0.28 0  0.7 0.28 0  0.72 0.28 0  0.74 0.28 0  0.76 0.28 0  0.78 0.28 0  0.8 0.28 0  0.82 0.28 0  0.84 0.28 0  0.86 0.28
[...]
<PointData  Scalars="f_17"> 
<DataArray  type="Float64"  Name="f_17"  format="ascii">1.0000000000000000e+00  9.8826430074727989e-01  9.7652215218213612e-01  9.6476671144468673e-01  9.5299079826410704e-01  9.4118684567668476e-01  9.2934686023953861e-01  9.1746238395343271e-01  9.0552445583058672e-01  8.9352357235219426e-01  8.8144964637679002e-01  8.6929196413040122e-01  8.5703913990689806e-01  8.4467906807619353e-01  8.3219887195050612e-01  8.1958484899710449e-01  8.0682241180885284e-01  7.9389602414893623e-01  7.8078913126947880e-01  7.6748408356025000e-01  7.5396205240646863e-01  7.4020293691496752e-01  7.2618525989396543e-01  7.1188605112789305e-01  6.9728071555444149e-01  6.8234288339835281e-01  6.6704423860741702e-01  6.5135432101842006e-01  6.3524029648142211e-01  6.1866668758683985e-01  6.0159505552389947e-01  5.8398362073672883e-01  5.6578680611865140e-01  5.4695468101859213e-01  5.2743227659203806e-01  5.0715873185929161e-01  4.8606621337728145e-01  4.6407852660852655e-01  4.4110929861531450e-01  4.1705955027957098e-01  3.9181437457809859e-01  3.6523826196974984e-01  3.3716829548205912e-01  3.0740382325278626e-01  2.7568993365864830e-01  2.4168910724755138e-01  2.0492775955166939e-01  1.6468154592936110e-01  1.1968477448660535e-01  6.7242640696301398e-02  0.0000000000000000e+00  1.0000000000000000e+00  9.8826802418894055e-01  9.7652957613534375e-01  9.6477785885890865e-01  9.5300571602904893e-01  9.4120559993298336e-01  9.2936953558923618e-01  9.1748908370696980e-01  9.0555530263520490e-01  8.9355870904320145e-01  8.8148923701655446e-01  8.6933619523613614e-01  8.5708822188241840e-01  8.4473323687117075e-01  8.3225839097790966e-01  8.1965001134716209e-01  8.0689354280678272e-01  7.9397348431455128e-01  7.8087331975018193e-01  7.6757544212576456e-01  7.5406107011492562e-01  7.4031015558709945e-01  7.2630128056703747e-01  7.1201154170624148e-01  6.9741641993267867e-01  6.8248963241147620e-01  6.6720296326641981e-01  6.5152606863079709e-01  6.3542625044824985e-01  6.1886819193410980e-01  6.0181364559897210e-01  5.8422106203249702e-01  5.6604514395846628e-01  5.4723630497242071e-01  5.2774000520845388e-01  5.0749592594127424e-01  4.8643693021292322e-01  4.6448773438417196e-01  4.4156318172469783e-01  4.1756595636413296e-01  3.9238349103482606e-01  3.6588368116085856e-01  3.3790877606236064e-01  3.0826638892613561e-01  2.7671578482126591e-01  2.4294617558748946e-01  2.0654132706884132e-01  1.6692219092437871e-01  1.2326696073375858e-01  7.4496448465470794e-02  1.9998666693333080e-02  1.0000000000000000e+00  9.8827909205460129e-01  9.7655174807541434e-01  9.6481122597738667e-01  9.5305042397360862e-01  9.4126184818091729e-01  9.2943757794211257e-01  9.1756922968585908e-01  9.0564791952341062e-01  8.9366422447412763e-01  8.8160814208861105e-01  8.6946904817993109e-01  8.5723565233159371e-01  8.4489595080861613e-01  8.3243717644897153e-01  8.1984574505355312e-01  8.0710719772104667e-01  7.9420613848678812e-01  7.8112616651820732e-01  7.6784980198928632e-01  7.5435840459674541e-01  7.4063208348383536e-01  7.2664959709391630e-01  7.1238824117261801e-01  6.9782372275745086e-01  6.8293001751496896e-01  6.6767920717805407e-01  6.5204129305925773e-01  6.3598398061547445e-01  6.1947242873893060e-01  6.0246895574450487e-01  5.8493269176627483e-01  5.6681916425753331e-01  5.4807979920808814e-01  5.2866131511525394e-01  5.0850497903430969e-01  4.8754568325359227e-01  4.6571078590722675e-01  4.4291863713176172e-01  4.1907668130966502e-01  3.9407898171675237e-01  3.6780295253527862e-01  3.4010500451582670e-01  3.1081473308885726e-01  2.7972729042955208e-01  2.4659401781962803e-01  2.1111340505911902e-01  1.7293164951711723e-01  1.3168545934233128e-01  8.7186686383865258e-02  3.9989334186634161e-02  1.0000000000000000e+00  9.8829746795735496e-01  9.7658857673766575e-01  9.6486666719945169e-01  9.5312472305447804e-01  9.4135533761431256e-01  9.2955067950569292e-01  9.1770245723862631e-01  9.0580188256547156e-01  8.9383963248941867e-01  8.8180580971051081e-01  8.6968990124650458e-01  8.5748073492375909e-01  8.4516643339167952e-01  8.3273436526785638e-01  8.2017109296677626e-01  8.0746231670016888e-01  7.9459281405905757e-01  7.8154637449326081e-01  7.6830572788973650e-01  7.5485246631196434e-01  7.4116695779263131e-01  7.2722825086350595e-01  7.1301396824992869e-01  6.9850018784015300e-01  6.8366130864579988e-01  6.6846989897781262e-01  6.5289652344529969e-01  6.3690954460676275e-01  6.2047489411788581e-01  6.0355580696632261e-01  5.8611251078280502e-01  5.6810186016784603e-01  5.4947690334728283e-01  5.3018636511618578e-01  5.1017402578651205e-01  4.8937797059106702e-01  4.6772967774430918e-01  4.4515290661504092e-01  4.2156234193739517e-01  3.9686195039289213e-01  3.7094302425576209e-01  3.4368195270245916e-01  3.1493794655105417e-01  2.8455141802185718e-01  2.5234488380958803e-01  2.1813100407396366e-01  1.8173842419913297e-01  1.4307773954856870e-01  1.0228483946488363e-01  5.9964006479444588e-02  1.0000000000000000e+00  9.8832307481129711e-01  9.7663990215444241e-01  9.6494393741610884e-01  9.5322828161675333e-01  9.4148564823095859e-01  9.2970832941797088e-01  9.1788816136621643e-01  9.0601648856293970e-01  8.9408412680397298e-01  8.8208132473162015e-01  8.6999772365589101e-01  8.5782231538041243e-01  8.4554339771833653e-01  8.3314852734314693e-01  8.2062446957247459e-01  8.0795714462785673e-01  7.9513156984775446e-01  7.8213179725279658e-01  7.6894084576836730e-01  7.5554062729700644e-01  7.4191186569763090e-01  7.2803400756532066e-01  7.1388512350836275e-01  6.9944179838102194e-01  6.8467900864227138e-01  6.6956998466187789e-01  6.5408605537350784e-01  6.3819647216607689e-01  6.2186820829505085e-01  6.0506572937200642e-01  5.8775072964709407e-01  5.6988182784471131e-01  5.5141421529277701e-01  5.3229924811865970e-01  5.1248397463544515e-01  4.9191058926772957e-01  4.7051580659846032e-01  4.4823015562384455e-01  4.2497720959116075e-01  4.0067279981495846e-01  3.7522433034499064e-01  3.4853044914860243e-01  3.2048160787719882e-01  2.9096258102261924e-01  2.5985902708280179e-01  2.2707194027057961e-01  1.9254645474496601e-01  1.5632371465087816e-01  1.1862055322363196e-01  7.9914693969172695e-02  1.0000000000000000e+00  9.8835580062008832e-01  9.7670549790634842e-01  9.6504269340960580e-01  9.5336063719305886e-01  9.4165219534455713e-01  9.2990981702512088e-01  9.1812550078533006e-01  9.0629075993709618e-01  8.9439658678315337e-01  8.8243341549780963e-01  8.7039108343311511e-01  8.5825879060009480e-01  8.4602505704643882e-01  8.3367767781970892e-01  8.2120367516775816e-01  8.0858924758456885e-01  7.9581971525881734e-01  7.8287946142280473e-01  7.6975186902938697e-01  7.5641925210246275e-01  7.4286278101053849e-01  7.2906240080075879e-01  7.1499674160052551e-01  7.0064301994340761e-01  6.8597692970414492e-01  6.7097252113404116e-01  6.5560206627539153e-01  6.3983590880897301e-01  6.2364229616771871e-01  6.0698719156303937e-01  5.8983406347439649e-01  5.7214365024910496e-01  5.5387369792729069e-01  5.3497867056064330e-01  5.1540943468210143e-01  4.9511292416545277e-01  4.7403180016420671e-01  4.5210413606645844e-01  4.2926318455616241e-01  4.0543733178184754e-01  3.8055042737575129e-01  3.5452282343042124e-01  3.2727369847704385e-01  2.9872563340851305e-01  2.6881298219481564e-01  2.3749627432056972e-01  2.0478526819200712e-01  1.7077198319501966e-01  1.3566900088328607e-01  9.9833416646828155e-02  1.0000000000000000e+00  9.8839550090101114e-01  9.7678507349404542e-01  9.6516249630237283e-01  9.5352119947204872e-01  9.4185423333377627e-01  9.3015423654473595e-01  9.1841340359611723e-01  9.0662345149132817e-01  8.9477558540810387e-01  8.8286046315416378e-01  8.7086815821458585e-01  8.5878812117254111e-01  8.4660913926494552e-01  8.3431929381120085e-01  8.2190591522644529e-01  8.0935553530015558e-01  7.9665383638616172e-01  7.8378559711070073e-01  7.7073463416070509e-01  7.5748373966494564e-01  7.4401461362610033e-01  7.3030779080295027e-01  7.1634256138035801e-01  7.0209688470346743e-01  6.8754729529709047e-01  6.7266880035060506e-01  6.5743476783796351e-01  6.4181680448594236e-01  6.2578462294090331e-01  6.0930589777790356e-01  5.9234611054647512e-01  5.7486838501518644e-01  5.5683331541865333e-01  5.3819879323648101e-01  5.1891984250137302e-01  4.9894848089668575e-01  4.7823363564364257e-01  4.5672116205830748e-01  4.3435404282742157e-01  4.1107289377838158e-01  3.8681697613385646e-01  3.6152602722931643e-01  3.3514338175083835e-01  3.0762106156763991e-01  2.7892771905743730e-01  2.4906037101532097e-01  2.1806037354455141e-01  1.8603232564355360e-01  1.5316061111684454e-01  1.1971220728891938e-01  1.0000000000000000e+00  9.8844200021821982e-01  9.7687827669905303e-01  9.6530281461241996e-01  9.5370925417544505e-01  9.4209086049505664e-01  9.3044049302454657e-01  9.1875057446417918e-01  9.0701305893932893e-01  8.9521939929201444e-01  8.8336051331951604e-01  8.7142674878720872e-01  8.5940784703284567e-01  8.4729290496721066e-01  8.3507033526182761e-01  8.2272782449862436e-01  8.1025228903923463e-01  7.9762982835338925e-01  7.8484567552697138e-01  7.7188414465162447e-01  7.5872857478057054e-01  7.4536127012154352e-01  7.3176343613053907e-01  7.1791511117421791e-01  7.0379509345139335e-01  6.8938086291587375e-01  6.7464849804013727e-01  6.5957258742607905e-01  6.4412613654149875e-01  6.2828047029329537e-01  6.1200513282168190e-01  5.9526778693615567e-01  5.7803411719669640e-01  5.6026774304837890e-01  5.4193015205777051e-01  5.2298066879318472e-01  5.0337648315348960e-01  4.8307277431659290e-01  4.6202298484200427e-01  4.4017932637809859e-01  4.1749363703458947e-01  3.9391876388569413e-01  3.6941071336220571e-01  3.4393189166496529e-01  3.1745582359911412e-01  2.8997373140881111e-01  2.6150314974890215e-01  2.3209813433491522e-01  2.0185932742076815e-01  1.7094011194276604e-01  1.3954311464423649e-01  1.0000000000000000e+00  9.8849509352996545e-01  9.7698469606547889e-01  9.6546302778766324e-01  9.5392396768936649e-01  9.4236102486907958e-01  9.3076730947936903e-01  9.1913550319408943e-01  9.0745782905734007e-01  8.9572602057723072e-01  8.8393128992656311e-01  8.7206429510981165e-01  8.6011510595162932e-01  8.4807316875703731e-01  8.3592726948807172e-01  8.2366549529659250e-01  8.1127519424885319e-01  7.9874293307524802e-01  7.8605445277955788e-01  7.7319462194781408e-01  7.6014738760999045e-01  7.4689572353166656e-01  7.3342157585255097e-01  7.1970580605139289e-01  7.0572813131246037e-01  6.9146706251177104e-01  6.7689984025217953e-01  6.6200236968449988e-01  6.4674915529902455e-01  6.3111323751802262e-01  6.1506613385099140e-01  5.9857778871342837e-01  5.8161653793205181e-01  5.6414909671367119e-01  5.4614058379148844e-01  5.2755460006679722e-01  5.0835338799145291e-01  4.8849810903625568e-01  4.6794929188107259e-01  4.4666752448516472e-01  4.2461448958840964e-01  4.0175447469614323e-01  3.7805652000426521e-01  3.5349738957964105e-01  3.2806553760673068e-01  3.0176614658524203e-01  2.7462706581304724e-01  2.4670499063559195e-01  2.1809045796514517e-01  1.8890935233270456e-01  1.5931820661424598e-01  1.0000000000000000e+00  9.8855454756209904e-01  9.7710386358409174e-01  9.6564243017443474e-01  9.5416439235167760e-01  9.4266353092554200e-01  9.3113323508023449e-01  9.1956647455235296e-01  9.0795577129438310e-01  8.9629317051513613e-01  8.8457021098935096e-01  8.7277789452953869e-01  8.6090665451415760e-01  8.4894632336780251e-01  8.3688609889194898e-01  8.2471450934974599e-01  8.1241937721646273e-01  7.9998778151981864e-01  7.8740601871340687e-01  7.7465956205420594e-01  7.6173301949510264e-01  7.4861009015999214e-01  7.3527351954860498e-01  7.2170505372927940e-01  7.0788539293221708e-01  6.9379414516944571e-01  6.7940978080300540e-01  6.6470958939041669e-01  6.4966964069840283e-01  6.3426475255013948e-01  6.1846846923742849e-01  6.0225305569545395e-01  5.8558951465040210e-01  5.6844763670384379e-01  5.5079609706550381e-01  5.3260261770504191e-01  5.1383422043657589e-01  4.9445760526417665e-01  4.7443969949368203e-01  4.5374843660754938e-01  4.3235383883384582e-01  4.1022949114746365e-01  3.8735450140421446e-01  3.6371603046786988e-01  3.3931242897469693e-01  3.1415690654986289e-01  2.8828145331015748e-01  2.6174041419902744e-01  2.3461272027390259e-01  2.0700146251345003e-01  1.7902957342582418e-01  1.0000000000000000e+00  9.8862010227062747e-01  9.7723525760460828e-01  9.6584023538555519e-01  9.5442947231663766e-01  9.4299704699927067e-01  9.3153665426624410e-01  9.2004157918640483e-01  9.0850467065816187e-01  8.9691831451094151e-01  8.8527440603689400e-01  8.7356432187946942e-01  8.6177889121119977e-01  8.4990836614060028e-01  8.3794239129837922e-01  8.2586997256707506e-01  8.1367944493717037e-01  8.0135843949837327e-01  7.8889384960932774e-01  7.7627179633546706e-01  7.6347759330692033e-01  7.5049571123150538e-01  7.3730974240871017e-01  7.2390236573833411e-01  7.1025531291429744e-01  6.9634933675625299e-01  6.8216418298072035e-01  6.6767856717825436e-01  6.5287015938188298e-01  6.3771557943492863e-01  6.2219040745912257e-01  6.0626921517118926e-01  5.8992562570454832e-01  5.7313241209263921e-01  5.5586164781207259e-01  5.3808492692477994e-01  5.1977367652990603e-01  5.0089959047411203e-01  4.8143522038097214e-01  4.6135476739140208e-01  4.4063512405407962e-01  4.1925721763372248e-01  3.9720769858508920e-01  3.7448099297273885e-01  3.5108168392942574e-01  3.2702709204683217e-01  3.0234977934187296e-01  2.7709951454689979e-01  2.5134405458677928e-01  2.2516802084952897e-01  1.9866933079506122e-01  1.0000000000000000e+00  9.8869147240605826e-01  9.7737830597001019e-01  9.6605558102706646e-01  9.5471804992188902e-01  9.4336011337336345e-01  9.3197579664774111e-01  9.2055872547992568e-01  9.0910210168470318e-01  8.9759867840349372e-01  8.8604073493782853e-01  8.7442005112830523e-01  8.6272788124767941e-01  8.5095492738956591e-01  8.3909131235087764e-01  8.2712655202772389e-01  8.1504952737254077e-01  8.0284845599665022e-01  7.9051086354966782e-01  7.7802355506841092e-01  7.6537258656729745e-01  7.5254323724494243e-01  7.3951998281471276e-01  7.2628647063929097e-01  7.1282549757241065e-01  6.9911899169986946e-01  6.8514799954599470e-01  6.7089268079564335e-01  6.5633231320702612e-01  6.4144531119643777e-01  6.2620926261081722e-01  6.1060098952565389e-01  5.9459664057986483e-01  5.7817182445492654e-01  5.6130179668377778e-01  5.4396171506663793e-01  5.2612698253513579e-01  5.0777370015981127e-01  4.8887925669775167e-01  4.6942308375181124e-01  4.4938760570633202e-01  4.2875940858597145e-01  4.0753063808055179e-01  3.8570060915528892e-01  3.6327756229965386e-01  3.4028043043921502e-01  3.1674038760694112e-01  2.9270185031510670e-01  2.6822253060472273e-01  2.4337215422408900e-01  2.1822962308086932e-01  1.0000000000000000e+00  9.8876834917385725e-01  9.7753238935036779e-01  9.6628753373570120e-01  9.5502887248182811e-01  9.4375115090545081e-01  9.3244874756869489e-01  9.2111565218231839e-01  9.0974544329593854e-01  8.9833126574548705e-01  8.8686580783599844e-01  8.7534127824828256e-01  8.6374938267149293e-01  8.5208130018078909e-01  8.4032765940117871e-01  8.2847851452638099e-01  8.1652332129684413e-01  8.0445091308575578e-01  7.9224947729862694e-01  7.7990653236393226e-01  7.6740890568342657e-01  7.5474271302622220e-01  7.4189333999698381e-01  7.2884542639381844e-01  7.1558285450586234e-01  7.0208874269700861e-01  6.8834544599653757e-01  6.7433456588904406e-01  6.6003697208836576e-01  6.4543283982056043e-01  6.3050170706010600e-01  6.1522255729364761e-01  5.9957393475639031e-01  5.8353410071659562e-01  5.6708124126766013e-01  5.5019373917024317e-01  5.3285052442714020e-01  5.1503152018427845e-01  4.9671820171776609e-01  4.7789428583915056e-01  4.5854656472158550e-01  4.3866589005762846e-01  4.1824829820657367e-01  3.9729624193250346e-01  3.7581985740957369e-01  3.5383814654848350e-01  3.3137989942136953e-01  3.0848413272796393e-01  2.8519980095505942e-01  2.6158457730764151e-01  2.3770262642713458e-01  1.0000000000000000e+00  9.8885040197808549e-01  9.7769684474586016e-01  9.6653509447479802e-01  9.5536059943034635e-01  9.4416847009384564e-01  9.3295345919734796e-01  9.2170994165136411e-01  9.1043189435075988e-01  8.9911287585141220e-01  8.8774600592008635e-01  8.7632394497281674e-01  8.6483887343341237e-01  8.5328247106430744e-01  8.4164589634785192e-01  8.2991976602853568e-01  8.1809413496710603e-01  8.0615847650807959e-01  7.9410166362516743e-01  7.8191195118769607e-01  7.6957695978892404e-01  7.5708366169890029e-01  7.4441836965584796e-01  7.3156672939797285e-01  7.1851371707051115e-01  7.0524364293091091e-01  6.9174016313018083e-01  6.7798630178442931e-01  6.6396448608268388e-01  6.4965659782122198e-01  6.3504404552580462e-01  6.2010786223234116e-01  6.0482883504497109e-01  5.8918767376154690e-01  5.7316522710099049e-01  5.5674275628310044e-01  5.3990227671435898e-01  5.2262697901556920e-01  5.0490174010878541e-01  4.8671373285808173e-01  4.6805313786719172e-01  4.4891395226972503e-01  4.2929487638876435e-01  4.0920023891684071e-01  3.8864089461398310e-01  3.6763499726156146e-01  3.4620851988764667e-01  3.2439537366484572e-01  3.0223698009069327e-01  2.7978119264497670e-01  2.5708055189215512e-01  1.0000000000000000e+00  9.8893728023247951e-01  9.7787096912545168e-01  9.6679720403471570e-01  9.5571180973634795e-01  9.4461028048249196e-01  9.3348776201761940e-01  9.2233903355270597e-01  9.1115848970109237e-01  8.9994012238849941e-01  8.8867750276104152e-01  8.7736376312972686e-01  8.6599157900835422e-01  8.5455315132476461e-01  8.4304018891402810e-01  8.3144389143757791e-01  8.1975493291602386e-01  8.0796344611727589e-01  7.9605900810791197e-01  7.8403062735715756e-01  7.7186673288274743e-01  7.5955516605025708e-01  7.4708317578693129e-01  7.3443741815320362e-01  7.2160396143639349e-01  7.0856829819882650e-01  6.9531536603485289e-01  6.8182957917631815e-01  6.6809487354190566e-01  6.5409476835871339e-01  6.3981244809675664e-01  6.2523086914374415e-01  6.1033289639052490e-01  5.9510147565819116e-01  5.7951984860473837e-01  5.6357181728306882e-01  5.4724206569548861e-01  5.3051654522361114e-01  5.1338292931325513e-01  4.9583113973986642e-01  4.7785394153368443e-01  4.5944759551690811e-01  4.4061254581554082e-01  4.2135410447419219e-01  4.0168307709945594e-01  3.8161625441537528e-01  3.6117667887801191e-01  3.4039358938432829e-01  3.1930195826836427e-01  2.9794156970563962e-01  2.7635564856411376e-01  1.0000000000000000e+00  9.8902861522242491e-01  9.7805402316708923e-01  9.6707274868437409e-01  9.5608100951771835e-01  9.4507470030770779e-01  9.3404937659968035e-01  9.2300023886769011e-01  9.1192211657477817e-01  9.0080945229912490e-01  8.8965628596807977e-01  8.7845623925789607e-01  8.6720250023675771e-01  8.5588780835318590e-01  8.4450443990206270e-01  8.3304419413747177e-01  8.2149838024668442e-01  8.0985780545463237e-01  7.9811276459503011e-01  7.8625303156535675e-01  7.7426785318089220e-01  7.6214594606118302e-01  7.4987549732430203e-01  7.3744417003423457e-01  7.2483911454907557e-01  7.1204698715716208e-01  6.9905397766920796e-01  6.8584584796071846e-01  6.7240798383238043e-01  6.5872546297551504e-01  6.4478314228826561e-01  6.3056576827031408e-01  6.1605811470037131e-01  6.0124515222213992e-01  5.8611225475309903e-01  5.7064544766965097e-01  5.5483170234498047e-01  5.3865928059475554e-01  5.2211813062708456e-01  5.0520033284556898e-01  4.8790058894149047e-01  4.7021674080659731e-01  4.5215029675987889e-01  4.3370693166218344e-01  4.1489691561167419e-01  3.9573541494386894e-01  3.7624260218989097e-01  3.5644351239285205e-01  3.3636759578810310e-01  3.1604794390541247e-01  2.9552020666133955e-01  1.0000000000000000e+00  9.8912402200159211e-01  9.7824523506629035e-01  9.6736056592283848e-01  9.5646663978340540e-01  9.4555976629566940e-01  9.3463592553628860e-01  9.2369075407183343e-01  9.1271953112082893e-01  9.0171716486068265e-01  8.9067817893627665e-01  8.7959669924339889e-01  8.6846644108052806e-01  8.5728069678750640e