# vtk DataFile Version 2.0
track0
ASCII
DATASET POLYDATA
POINTS 41144 float
0.05 8.57988e-20 2.57396e-18
0.05 0.00217391 -1.05592e-17
0.05 0.00217391 -1.05592e-17
0.05 0.00217391 -1.05592e-17
0.05 0.00217391 -1.05592e-17
0.05 0.00217391 -1.05592e-17
0.05 0.00217391 -1.38778e-17
0.0493333 0.00217502 -3.19189e-18
0.0486667 0.00217718 -5.75929e-18
0.048 0.00218093 -5.59674e-18
0.0473334 0.00218784 -9.88849e-18
0.0466667 0.00219732 -6.93889e-18
0.046 0.00220922 3.747e-18
0.0453333 0.00222058 3.60824e-18
0.0446667 0.00223255 6.63227e-18
0.0440001 0.00224755 1.09392e-18
0.0433333 0.00226603 1.38778e-18
0.0426667 0.00228835 9.29812e-18
0.0419999 0.00230871 1.12406e-17
0.0413332 0.00232935 1.09908e-17
0.0406666 0.00235293 1.55105e-17
0.04 0.00238051 1.11022e-17
0.0393333 0.00241323 1.06859e-17
0.0386665 0.00244282 4.99625e-18
0.0379997 0.00247317 4.257e-18
0.0373331 0.00250651 5.48602e-18
0.0366667 0.00254374 6.93889e-18
0.036 0.00258731 5.82867e-18
0.0353331 0.0026268 3.61076e-18
0.0346663 0.00266858 5.98293e-18
0.0339997 0.00271357 4.97616e-18
0.0333333 0.00276187 4.16334e-18
0.0326667 0.00281731 4.57967e-18
0.0319998 0.00286968 4.64947e-18
0.0313331 0.00292546 -4.01027e-18
0.0306668 0.00298482 4.34642e-18
0.03 0.00304796 1.11022e-17
0.0294499 0.00310504 1.34061e-17
0.0288998 0.00316182 8.77115e-18
0.0283499 0.00322128 1.10096e-17
0.0278004 0.0032835 1.56828e-17
0.0273799 0.00333333 1.08023e-17
0.0272373 0.00335083 1.11398e-17
0.0270947 0.00336854 1.35591e-17
0.0269521 0.00338645 1.32029e-17
0.0268095 0.00340457 1.56223e-17
0.0266667 0.00342293 8.55049e-18
0.026 0.00351158 7.38415e-18
0.0253338 0.00360344 6.22584e-18
0.0246682 0.00370012 1.94031e-18
0.0240034 0.00380181 3.04742e-18
0.0233333 0.00390969 5.97907e-18
0.0226667 0.00403607 2.17491e-19
0.0219994 0.00415921 -1.37537e-18
0.0213331 0.00428767 -2.56531e-18
0.0206681 0.00442225 6.83447e-19
0.02 0.00457405 1.15419e-17
0.0193333 0.00475313 1.00995e-17
0.0186665 0.00493158 7.10215e-18
0.0179995 0.00510933 7.73243e-18
0.017336 0.00529972 5.95286e-18
0.0166667 0.00552126 0
0.0160625 0.00575034 8.44822e-18
0.0154591 0.00598164 3.92237e-18
0.01486 0.0062237 1.25586e-17
0.0142678 0.00648235 9.92224e-18
0.0138779 0.00666667 3.2565e-18
0.013769 0.00672094 3.43787e-18
0.0136604 0.00677597 1.19453e-17
0.0135523 0.00683176 7.96202e-18
0.0134446 0.00688831 7.04309e-19
0.0133333 0.00694801 1.20215e-17
0.0126667 0.00731506 -3.85896e-19
0.0120123 0.00770366 1.74251e-18
0.0113733 0.00811687 2.49659e-18
0.0107514 0.00855559 6.45326e-18
0.01 0.00914605 6.93889e-18
0.00980944 0.00931684 4.63935e-18
0.00962053 0.00948944 2.3357e-18
0.00943328 0.00966386 -2.78878e-20
0.00924776 0.0098401 3.67201e-18
0.00908275 0.01 0
0.00859953 0.0104767 -1.97018e-19
0.00813942 0.0109757 -8.29066e-18
0.00770389 0.0114963 -1.13785e-17
0.007292 0.0120358 -8.59452e-18
0.00666667 0.0129267 -1.249e-17
0.00661665 0.013008 -8.40997e-18
0.00656694 0.0130895 -1.54316e-17
0.00651753 0.0131712 -1.13506e-17
0.00646842 0.0132531 -1.21599e-17
0.00642046 0.0133333 -1.80411e-17
0.00602287 0.014 -8.74301e-18
0.00566165 0.0146871 -9.54023e-18
0.00533112 0.0153894 -9.92815e-18
0.00502732 0.0161037 -1.12075e-17
0.00479039 0.0166667 -1.9779e-17
0.00451193 0.0173333 -1.71786e-17
0.00427299 0.0180152 -1.46499e-17
0.0040601 0.0187056 -1.16991e-17
0.00385806 0.0193992 -7.87485e-18
0.00369274 0.02 -2.20338e-18
0.00362086 0.0202582 -9.73707e-20
0.00355466 0.020518 -1.24066e-18
0.0034903 0.0207782 7.27959e-18
0.0034274 0.0210388 5.73662e-18
0.00333333 0.021438 4.36698e-18
0.00324724 0.021817 -1.43382e-19
0.00316378 0.0221967 6.65653e-18
0.00308288 0.0225769 6.52181e-18
0.00300444 0.0229576 1.61056e-17
0.00292947 0.0233333 6.93889e-18
0.00279196 0.024 8.60423e-18
0.00266995 0.0246697 1.13054e-17
0.00255567 0.0253407 1.37387e-17
0.0024485 0.0260129 1.23614e-17
0.00234562 0.0266667 1.80411e-17
0.00222954 0.0273333 2.38698e-17
0.00213233 0.028003 2.13793e-17
0.00205077 0.0286748 2.18033e-17
0.00197493 0.0293472 1.82217e-17
0.00189 0.03 2.22045e-17
0.00179055 0.0306667 2.38698e-17
0.00171118 0.031336 2.65715e-17
0.00165087 0.0320074 2.27455e-17
0.00159265 0.0326789 2.23791e-17
0.00152226 0.0333333 2.10453e-17
0.00143623 0.034 2.39866e-17
0.00137167 0.0346691 2.79276e-17
0.00132688 0.0353398 2.96183e-17
0.00128301 0.0360105 3.01873e-17
0.0012251 0.0366667 4.16748e-17
0.00115026 0.0373333 4.07586e-17
0.00109845 0.0380022 4.61915e-17
0.00106062 0.038672 4.3498e-17
0.00102279 0.0393418 4.08527e-17
0.000976038 0.04 4.41713e-17
0.000910766 0.0406667 5.81578e-17
0.000870427 0.0413353 6.01017e-17
0.000837752 0.0420044 5.80713e-17
0.000805076 0.0426734 6.25183e-17
0.000768632 0.0433333 6.32517e-17
0.000711696 0.044 6.54282e-17
0.000681952 0.0446684 7.25583e-17
0.000653757 0.0453369 6.98687e-17
0.000625561 0.0460054 7.18779e-17
0.000597672 0.0466667 6.70058e-17
0.000548061 0.0473333 5.51883e-17
0.000523781 0.0480014 5.26983e-17
0.000499502 0.0486695 4.87064e-17
0.000475222 0.0493375 5.03694e-17
0.000451147 0.05 4.08821e-17
0.000407955 0.0506667 3.82478e-17
0.000387064 0.0513344 4.39049e-17
0.000366173 0.0520021 4.41972e-17
0.000345281 0.0526699 4.4126e-17
0.000324524 0.0533333 4.6644e-17
0.000286843 0.054 4.95517e-17
0.000268778 0.0546675 4.20198e-17
0.000250713 0.055335 4.28102e-17
0.000232648 0.0560025 4.34334e-17
0.000214672 0.0566667 4.40514e-17
0.000181481 0.0573333 4.34822e-17
0.000165568 0.0580006 5.0518e-17
0.000149655 0.0586679 4.97498e-17
0.000133742 0.0593352 4.69037e-17
0.000117889 0.06 4.56004e-17
9.43115e-05 0.0605246 5.06766e-17
8.27782e-05 0.0610496 4.74069e-17
7.12448e-05 0.0615747 4.69126e-17
5.97115e-05 0.0620997 5.13206e-17
3.26118e-05 0.0633333 4.85179e-17
2.60895e-05 0.0634864 4.86102e-17
2.27205e-05 0.0636395 5.28608e-17
1.93516e-05 0.0637927 5.34684e-17
1.59826e-05 0.0639459 5.9974e-17
0 0.0646724 5.77412e-17
0.05 0.00434783 5.94331e-18
0.0493333 0.00434873 -3.03193e-19
0.0486667 0.0043527 -6.55481e-18
0.048 0.00435906 -4.64913e-18
0.0473334 0.0043671 -1.12353e-18
0.0466667 0.00437804 8.66855e-18
0.046 0.004393 1.14192e-17
0.0453334 0.00440962 1.20854e-17
0.0446668 0.00442789 7.49482e-18
0.0440003 0.00444779 8.63512e-18
0.0433333 0.00447158 1.33725e-18
0.0426667 0.00450059 9.85717e-18
0.042 0.00453006 1.24821e-17
0.0413334 0.00456023 1.3045e-17
0.0406669 0.00459204 1.21587e-17
0.04 0.00462945 1.58827e-17
0.0393333 0.00467336 1.9279e-17
0.0386666 0.00471674 1.40026e-17
0.0379999 0.00475956 1.6548e-17
0.0373333 0.00480468 1.79934e-17
0.0366667 0.00485736 1.96398e-17
0.036 0.00491794 1.24426e-17
0.0353332 0.00497725 7.31799e-18
0.0346663 0.00503527 7.21719e-18
0.0339998 0.00509698 9.75334e-18
0.0333333 0.00516769 4.16334e-18
0.0326667 0.00524782 5.82867e-18
0.0319998 0.00532627 8.88229e-18
0.0313327 0.00540297 5.03172e-18
0.0306664 0.0054857 4.74226e-18
0.03 0.00557857 6.93889e-18
0.0293333 0.00568258 1.06859e-17
0.0286664 0.00578484 9.15979e-18
0.028 0.00589048 7.17281e-18
0.0273348 0.00600343 9.30514e-18
0.0266667 0.00612488 6.93889e-18
0.0261283 0.00623324 9.22316e-18
0.02559 0.0063417 3.87461e-18
0.0250529 0.00645561 6.1136e-18
0.0245169 0.00657521 1.81878e-18
0.0241275 0.00666667 8.39191e-18
0.0239687 0.00670538 9.3503e-18
0.02381 0.00674466 6.14513e-18
0.0236514 0.00678452 9.18472e-18
0.023493 0.00682497 9.44851e-18
0.0233333 0.00686639 -3.3261e-19
0.0226667 0.00704419 7.59073e-19
0.0220025 0.00723113 1.83553e-18
0.0213415 0.00742889 2.31019e-18
0.020684 0.00763795 8.25454e-19
0.02 0.00787217 -9.47866e-18
0.0193333 0.00812569 -1.0391e-18
0.0186708 0.00838974 -4.98918e-18
0.0180127 0.0086649 -2.50794e-18
0.0173621 0.00895716 2.43057e-18
0.0166667 0.00929817 0
0.0164058 0.00943854 9.5342e-19
0.0161461 0.00958091 1.19691e-17
0.0158876 0.00972554 7.54237e-18
0.0156308 0.00987316 1.21333e-17
0.0154161 0.01 1.38778e-17
0.0149996 0.0102518 1.23522e-17
0.0145891 0.0105133 1.14396e-17
0.014185 0.0107847 1.10716e-17
0.0137878 0.0110659 1.97533e-17
0.0133333 0.0114077 2.21153e-17
0.0128563 0.0117929 1.5859e-17
0.0123896 0.0121904 6.75508e-18
0.0119337 0.0126003 4.41254e-18
0.0114894 0.0130227 1.02897e-17
0.0111806 0.0133333 1.17961e-17
0.0109444 0.0135805 1.20736e-17
0.0107137 0.0138327 1.29916e-17
0.0104884 0.0140897 7.03831e-18
0.0102684 0.0143513 5.54528e-19
0.01 0.0146838 3.50618e-18
0.00969574 0.0150804 -3.28225e-18
0.00940072 0.0154839 3.16533e-18
0.00911489 0.0158939 5.63734e-18
0.00883779 0.0163099 3.6702e-18
0.00860837 0.0166667 8.32667e-18
0.00822003 0.0172886 7.6967e-18
0.00785928 0.0179268 4.69196e-21
0.00752489 0.0185793 -2.68146e-18
0.00720899 0.019241 -1.20217e-18
0.00687107 0.02 -3.65274e-18
0.00683019 0.0200983 -6.53041e-18
0.00678992 0.0201969 -6.98974e-18
0.00675016 0.0202957 -3.28958e-18
0.0067108 0.0203946 -1.36411e-17
0.00666667 0.0205068 -1.12239e-17
0.00644732 0.0210721 -9.11792e-18
0.0062396 0.0216418 -3.55323e-18
0.00604285 0.0222154 3.12447e-18
0.0058564 0.0227923 1.10638e-17
0.00568763 0.0233333 6.93889e-18
0.00547828 0.024 1.06859e-17
0.0052914 0.0246733 1.02585e-17
0.00512589 0.0253522 8.46397e-18
0.00496826 0.026033 8.60625e-18
0.00481767 0.0266667 8.21816e-18
0.00465567 0.0273333 8.85431e-18
0.00451467 0.0280048 5.29175e-18
0.00439028 0.0286795 4.97471e-18
0.00427009 0.0293549 6.03683e-18
0.00415438 0.03 -1.36732e-18
0.00402965 0.0306667 3.00373e-18
0.00392412 0.0313366 1.02627e-17
0.00382289 0.0320073 1.33106e-17
0.00372529 0.0326785 1.0805e-17
0.00363355 0.0333333 1.47656e-17
0.00357351 0.0337542 8.28071e-18
0.00351841 0.0341758 1.09482e-18
0.00346465 0.0345976 1.02134e-17
0.0034122 0.0350195 6.39715e-19
0.00333333 0.03567 -6.93889e-18
0.00331008 0.0358693 -4.20206e-18
0.00328709 0.0360687 -7.0159e-18
0.00326436 0.0362681 -1.39926e-17
0.00324189 0.0364675 -9.86674e-18
0.0032197 0.0366667 -6.93889e-18
0.00314486 0.0373333 -1.56819e-17
0.0030742 0.0380005 -1.05479e-17
0.00300643 0.0386679 -7.4833e-18
0.00294142 0.0393356 -1.45304e-17
0.00287941 0.04 -1.38778e-17
0.00281413 0.0406667 -1.01308e-17
0.00275621 0.041334 -8.81352e-18
0.00270087 0.0420016 -1.05327e-18
[...]
POINT_DATA 41144
 FIELD attributes 1
U 3 41144 float
-6.45199e-19 	-1.70296e-21 	0
-0.0152377 	2.53295e-05 	0 -0.0152377 	2.53295e-05 	0 -0.0152377 	2.53295e-05 	0 -0.0152377 	2.53295e-05 	0 -0.0152377 	2.53295e-05 	0 -0.0152377 	2.53295e-05 	0 -0.0155714 	5.04935e-05 	0 -0.0158088 	8.87817e-05 	-3.91872e-25 -0.015769 	0.000163588 	-1.87461e-24 -0.0155156 	0.000220601 	-3.3643e-24 -0.0151915 	0.00027111 	-4.85984e-24 -0.0155162 	0.000264301 	1.90385e-22 -0.0156988 	0.000282047 	3.20925e-22 -0.0155984 	0.000350997 	3.17089e-22 -0.0153646 	0.000425853 	1.89615e-22 -0.0150693 	0.000504384 	-6.01597e-24 -0.0153713 	0.000469534 	3.44513e-23 -0.0154624 	0.000478522 	5.48454e-23 -0.0153125 	0.000541853 	5.06158e-23 -0.0151081 	0.000625 	2.71105e-23 -0.0148528 	0.000729027 	-1.64343e-23 -0.0151213 	0.00067102 	-1.20577e-23 -0.0150912 	0.000686772 	-2.91211e-23 -0.0149058 	0.000745634 	-5.8504e-23 -0.0147218 	0.00082228 	-8.91544e-23 -0.0145144 	0.000948594 	-1.23248e-22 -0.0147416 	0.000872942 	-9.30579e-23 -0.014571 	0.000913088 	-8.7969e-23 -0.0143647 	0.000969362 	-8.6288e-23 -0.014175 	0.00102742 	-8.48927e-23 -0.0140207 	0.0011661 	-1.11482e-22 -0.0141188 	0.00110855 	-1.94616e-22 -0.0138904 	0.00116242 	-1.56252e-22 -0.0136777 	0.0012184 	-1.17307e-22 -0.0134814 	0.00127659 	-7.77578e-23 -0.0133451 	0.00138459 	1.08636e-23 -0.0132981 	0.0013726 	-4.69535e-23 -0.0131127 	0.00141795 	-3.34371e-23 -0.012938 	0.00146504 	-1.92414e-23 -0.0127743 	0.00151395 	-4.34223e-24 -0.0126576 	0.00155282 	7.62005e-24 -0.0126209 	0.00156671 	1.19083e-23 -0.0125849 	0.00158073 	1.62494e-23 -0.0125498 	0.00159489 	2.06439e-23 -0.0125155 	0.00160919 	2.50921e-23 -0.0124448 	0.00165481 	9.24091e-24 -0.0122058 	0.00168294 	6.85438e-24 -0.0120021 	0.00174345 	7.77441e-24 -0.0118145 	0.00180726 	8.66355e-24 -0.0116437 	0.0018745 	9.52044e-24 -0.0112858 	0.00213942 	5.16059e-23 -0.0109346 	0.00201801 	3.82096e-22 -0.0107457 	0.00207168 	4.69053e-22 -0.0105833 	0.0021416 	5.41603e-22 -0.0103195 	0.00234494 	4.40794e-22 -0.0099856 	0.00268231 	1.81852e-22 -0.00967779 	0.0025898 	4.48689e-22 -0.00936837 	0.00249661 	7.15509e-22 -0.00905498 	0.00259811 	7.29691e-22 -0.00878756 	0.00290877 	4.95156e-22 -0.00856729 	0.00324822 	2.618e-22 -0.00834327 	0.00319843 	4.66314e-22 -0.00806102 	0.00325672 	5.02119e-22 -0.00776275 	0.00339076 	4.3497e-22 -0.00749818 	0.00354434 	3.64451e-22 -0.00734574 	0.00366068 	3.15021e-22 -0.00729796 	0.00370049 	3.01028e-22 -0.00725165 	0.00374127 	2.86889e-22 -0.00720683 	0.00378301 	2.72603e-22 -0.00714851 	0.00383671 	2.70977e-22 -0.00708238 	0.00389934 	2.75631e-22 -0.00667756 	0.00396572 	1.82965e-22 -0.00641036 	0.00414477 	9.88181e-23 -0.00617291 	0.0043551 	1.92693e-23 -0.00590325 	0.00463878 	2.61898e-23 -0.00562509 	0.00504159 	3.22724e-23 -0.00556335 	0.00508304 	1.86164e-23 -0.00550475 	0.00512741 	4.9539e-24 -0.00544836 	0.00517578 	3.03115e-23 -0.00539466 	0.00522773 	7.78696e-23 -0.00534939 	0.00527708 	1.20582e-22 -0.00504193 	0.00546823 	1.2144e-22 -0.00476749 	0.00569897 	1.16326e-22 -0.00453307 	0.0059377 	1.05193e-22 -0.00433703 	0.00617859 	8.85254e-23 -0.0040694 	0.00661683 	5.37951e-23 -0.00405259 	0.006645 	8.91333e-23 -0.00403616 	0.00667369 	1.24167e-22 -0.00402012 	0.0067029 	1.58898e-22 -0.0040204 	0.00672445 	8.4738e-23 -0.00402253 	0.00674486 	4.02084e-25 -0.00363557 	0.00691493 	-6.808e-22 -0.00342298 	0.00727325 	-1.12558e-21 -0.00327042 	0.00768953 	-1.50645e-21 -0.00336094 	0.00798613 	-1.19405e-21 -0.00343516 	0.00822431 	-9.47457e-22 -0.0030084 	0.00858453 	-6.22819e-22 -0.0027432 	0.00889621 	-3.65609e-22 -0.00265007 	0.0090986 	-1.98572e-22 -0.00256664 	0.00932673 	-2.66001e-23 -0.00269633 	0.00968691 	1.79202e-23 -0.00253079 	0.0099302 	1.46003e-24 -0.00248242 	0.0100375 	0 -0.00244682 	0.0101357 	0 -0.00241274 	0.0102388 	0 -0.0023629 	0.0104035 	0 -0.00231999 	0.0105546 	0 -0.00227982 	0.0107149 	0 -0.00224229 	0.0108838 	0 -0.00220732 	0.0110611 	0 -0.00227067 	0.0110085 	0 -0.00202306 	0.011104 	0 -0.00195006 	0.0114503 	0 -0.00188619 	0.0118309 	0 -0.00189639 	0.0120503 	0 -0.00205908 	0.0118258 	0 -0.00173846 	0.0119765 	0 -0.00148961 	0.0122693 	0 -0.00144263 	0.0127902 	0 -0.0016346 	0.0125637 	0 -0.00182364 	0.012225 	0 -0.00148301 	0.0125063 	0 -0.00116078 	0.0129213 	0 -0.00112875 	0.0130192 	0 -0.00136145 	0.0126589 	0 -0.00157413 	0.0121984 	0 -0.00121826 	0.0126262 	0 -0.000883625 	0.01323 	0 -0.000840857 	0.0128562 	0 -0.00109488 	0.0124063 	0 -0.00132712 	0.0118216 	0 -0.000961096 	0.0124076 	0 -0.00072042 	0.012755 	0 -0.000695609 	0.0123157 	0 -0.000836679 	0.0117796 	0 -0.00108426 	0.0110744 	0 -0.000713469 	0.0118261 	0 -0.000577489 	0.0118246 	0 -0.000555811 	0.0113807 	0 -0.000599879 	0.0108623 	0 -0.000858085 	0.0100473 	0 -0.000488017 	0.0109673 	0 -0.000447784 	0.0106167 	0 -0.00042927 	0.0101777 	0 -0.000410756 	0.00973876 	0 -0.000657978 	0.00884186 	0 -0.000349027 	0.00960375 	0 -0.000333565 	0.0091783 	0 -0.000318103 	0.00875285 	0 -0.00030264 	0.0083274 	0 -0.000481792 	0.00743646 	0 -0.000247833 	0.00792139 	0 -0.000235142 	0.00751574 	0 -0.00022245 	0.00711009 	0 -0.000209759 	0.00670443 	0 -0.000332329 	0.00587961 	2.90584e-37 -0.0001648 	0.0060893 	0 -0.000154421 	0.0057058 	0 -0.000144043 	0.00532231 	0 -0.000133664 	0.00493882 	0 -0.000210382 	0.00422568 	2.93173e-40 -9.93376e-05 	0.00416564 	0 -9.06272e-05 	0.00380038 	0 -8.19169e-05 	0.00343512 	0 -7.32065e-05 	0.00306986 	0 -0.000112262 	0.0024979 	-1.05399e-37 -5.09985e-05 	0.00232157 	0 -4.47619e-05 	0.00203767 	0 -3.85253e-05 	0.00175376 	0 -3.22887e-05 	0.00146986 	0 -3.14917e-05 	0.000738991 	0 -1.50827e-05 	0.000685681 	0 -1.31351e-05 	0.000597138 	0 -1.11874e-05 	0.000508596 	0 -9.23979e-06 	0.000420053 	0 0 	0 	0
-0.0296361 	4.00856e-05 	0 -0.0298576 	0.000177916 	0 -0.0299664 	0.000285918 	-6.94378e-25 -0.0299446 	0.000361014 	-2.15472e-24 -0.0297574 	0.000488494 	-1.7759e-23 -0.0294401 	0.000660481 	-4.53338e-23 -0.029572 	0.000737466 	-2.24296e-22 -0.0296308 	0.000812037 	-3.34641e-22 -0.0295729 	0.000882721 	-3.40481e-22 -0.0292932 	0.00104511 	-2.30492e-22 -0.0289122 	0.00125813 	-5.84813e-23 -0.0289559 	0.00127979 	-6.82574e-23 -0.0289725 	0.00131134 	-7.68896e-23 -0.0288841 	0.00137866 	-8.12945e-23 -0.0284895 	0.00159824 	-5.54312e-23 -0.028069 	0.00184879 	-2.40946e-23 -0.0280324 	0.00182364 	-4.88259e-23 -0.0279928 	0.00179815 	-7.35581e-23 -0.0278384 	0.00188404 	-9.67315e-23 -0.0273643 	0.00216256 	-9.25389e-23 -0.0269294 	0.00244708 	-8.7981e-23 -0.026825 	0.00238605 	-2.7657e-22 -0.0267139 	0.00232401 	-4.65253e-22 -0.0264091 	0.00244518 	-4.49617e-22 -0.0259416 	0.00275216 	-2.29948e-22 -0.0255163 	0.00306721 	-9.71033e-24 -0.0253593 	0.00298296 	1.52837e-22 -0.0251942 	0.00289713 	3.15317e-22 -0.0246766 	0.00306355 	3.28511e-22 -0.0242338 	0.00337728 	2.40829e-22 -0.0238396 	0.00371943 	1.40489e-22 -0.0236464 	0.00362551 	2.79369e-22 -0.0232581 	0.00368687 	3.15535e-22 -0.0227511 	0.00386306 	2.79005e-22 -0.0222729 	0.00404892 	2.41267e-22 -0.0219267 	0.00441356 	9.30983e-23 -0.0217181 	0.00437613 	8.51754e-23 -0.0213189 	0.00452072 	1.16043e-22 -0.0209384 	0.00467269 	1.47428e-22 -0.0205776 	0.00483239 	1.79352e-22 -0.0203298 	0.0049546 	2.03015e-22 -0.0202334 	0.00500869 	2.04867e-22 -0.0201389 	0.00506359 	2.06654e-22 -0.0200465 	0.00511932 	2.08377e-22 -0.0199561 	0.00517588 	2.10034e-22 -0.0198012 	0.00528097 	2.18225e-22 -0.0192966 	0.00543145 	1.97903e-22 -0.0188747 	0.00564667 	2.02153e-22 -0.0184846 	0.00587717 	2.04012e-22 -0.0180507 	0.00618142 	2.23366e-22 -0.0174754 	0.00664569 	2.83229e-22 -0.0169858 	0.006769 	1.60745e-22 -0.0165267 	0.0069108 	3.74064e-23 -0.0159676 	0.00717275 	0 -0.0155155 	0.0076081 	4.02932e-23 -0.0150861 	0.00811872 	8.14025e-23 -0.0149418 	0.00818999 	3.48698e-23 -0.0147888 	0.00827484 	0 -0.0146006 	0.00839365 	0 -0.0144201 	0.00851785 	0 -0.0142746 	0.00862703 	0 -0.013947 	0.00888588 	0 -0.0136429 	0.00916404 	0 -0.0133631 	0.00946182 	0 -0.0130222 	0.00979378 	0 -0.0126464 	0.0102102 	0 -0.0122948 	0.0104732 	0 -0.0119769 	0.0107666 	0 -0.0116445 	0.0110708 	0 -0.0113336 	0.0114009 	0 -0.0111377 	0.0116595 	0 -0.0109159 	0.0119296 	0 -0.0107081 	0.0122141 	0 -0.0104975 	0.0124841 	-1.8412e-23 -0.0102871 	0.0127448 	-5.14955e-23 -0.0100409 	0.0130872 	-9.2769e-23 -0.00978858 	0.0133874 	-9.911e-23 -0.00955877 	0.0137132 	-1.06561e-22 -0.00935622 	0.0140457 	-1.37547e-22 -0.00920102 	0.0143077 	-2.85573e-22 -0.00908274 	0.0145451 	-4.11435e-22 -0.00856331 	0.0151514 	-6.35978e-22 -0.00810423 	0.0158137 	-8.2575e-22 -0.00777704 	0.0162885 	-5.29844e-22 -0.007485 	0.0168126 	-2.39008e-22 -0.00728293 	0.0175155 	1.45363e-22 -0.00721543 	0.017664 	2.42817e-22 -0.00715908 	0.0177834 	2.71953e-22 -0.00711247 	0.0178772 	2.40851e-22 -0.00706672 	0.0179724 	2.10086e-22 -0.00701588 	0.0180816 	1.75617e-22 -0.00677368 	0.0185762 	1.6017e-22 -0.00655611 	0.0191121 	1.46178e-22 -0.00636173 	0.0196867 	1.33556e-22 -0.00628855 	0.0201586 	1.35643e-22 -0.00640099 	0.0203829 	1.61116e-22 -0.00583357 	0.0210179 	1.01166e-22 -0.00530033 	0.0217411 	4.22983e-23 -0.0052098 	0.0225002 	1.69941e-22 -0.00543271 	0.0228617 	3.55893e-22 -0.00563319 	0.0231815 	5.27624e-22 -0.00505307 	0.0240616 	2.33065e-22 -0.0045898 	0.0248962 	0 -0.00448562 	0.0252078 	0 -0.00458735 	0.0255764 	2.90487e-25 -0.0048556 	0.0259528 	8.17738e-25 -0.00426833 	0.0270968 	2.95353e-26 -0.00414772 	0.0274785 	0 -0.00405037 	0.0278546 	0 -0.00395821 	0.0282552 	0 -0.00408809 	0.0286576 	-1.21395e-22 -0.00382899 	0.0292965 	0 -0.00376682 	0.0295512 	0 -0.00370668 	0.0298166 	0 -0.00364852 	0.0300927 	0 -0.00356186 	0.0305341 	0 -0.00353717 	0.0306749 	0 -0.00351287 	0.0308177 	0 -0.00348896 	0.0309627 	0 -0.00346543 	0.0311098 	0 -0.00348781 	0.0310684 	0 -0.00333938 	0.0315274 	0 -0.0032491 	0.0319963 	0 -0.00316328 	0.0324928 	0 -0.00308172 	0.0330158 	0 -0.00319868 	0.0326704 	0 -0.00289468 	0.0333466 	0 -0.00280776 	0.0338705 	0 -0.00272489 	0.0344228 	0 -0.00265544 	0.0349546 	0 -0.00289987 	0.0339545 	0 -0.0025298 	0.0348745 	0 -0.00238792 	0.0355261 	0 -0.00230756 	0.0361239 	0 -0.00235233 	0.0360887 	0 -0.00259968 	0.0349343 	0 -0.00223569 	0.0360199 	0 -0.00199727 	0.0369466 	0 -0.00191997 	0.0375782 	0 -0.00206329 	0.0369574 	0 -0.00231004 	0.0356555 	0 -0.00195696 	0.0368994 	0 -0.00164742 	0.038163 	7.61028e-38 -0.00157536 	0.0388162 	6.47944e-37 -0.00180059 	0.0376177 	1.22139e-36 -0.00204484 	0.0361776 	1.78798e-36 -0.00170658 	0.037569 	1.1573e-36 -0.0013757 	0.0390952 	5.32886e-37 -0.00132705 	0.0395632 	7.82599e-40 -0.00157571 	0.0380919 	1.66342e-39 -0.00181838 	0.0365235 	2.53397e-39 -0.00149742 	0.0380497 	1.57819e-39 -0.00118314 	0.0397135 	6.31463e-40 -0.00115185 	0.0399859 	-3.96648e-37 -0.0014037 	0.0384009 	-9.75989e-37 -0.00164991 	0.0367114 	-1.54904e-36 -0.00134703 	0.0383615 	-9.26219e-37 -0.00105027 	0.0401512 	-3.09013e-37 -0.00103846 	0.0402625 	0 -0.0013053 	0.0385679 	0 -0.00156633 	0.0367559 	0 -0.00128054 	0.0385266 	0 -0.00100069 	0.0404396 	0 -0.00100564 	0.040397 	0 -0.00130826 	0.038584 	0 -0.00160388 	0.03663 	0 -0.00133326 	0.0385355 	0 -0.00106902 	0.0405898 	0 -0.00107691 	0.0403495 	0 -0.0014479 	0.0383831 	0 -0.00180861 	0.0362313 	0 -0.00155289 	0.0383232 	0 -0.00130514 	0.0405778 	0 -0.00128141 	0.0399691 	0 -0.00175779 	0.0377853 	0 -0.00222487 	0.0353121 	0 -0.00199151 	0.0377189 	0 -0.00180397 	0.0395548 	0 -0.0017579 	0.0385446 	0 -0.00221893 	0.0362728 	0 -0.00283699 	0.0332315 	0 -0.00265385 	0.0362411 	0 -0.00251 	0.0370127 	0 -0.00239457 	0.0353106 	0 -0.0026276 	0.0328358 	0 -0.00341951 	0.0287808 	0 -0.00335837 	0.03301 	0 -0.0030925 	0.0309634 	0 -0.00279499 	0.0279846 	0 -0.00249748 	0.0250058 	0 -0.00318434 	0.0196022 	0 -0.00308602 	0.0222306 	0 -0.00242444 	0.0174648 	0 -0.00176286 	0.012699 	0 -0.00110128 	0.00793319 	0 -0.000166238 	0.000798713 	0 -0.000175275 	0.00101715 	0 -0.000138757 	0.000805228 	0 -0.000102238 	0.000593306 	0 -6.57201e-05 	0.000381385 	0 0 	0 	0
-0.0430754 	4.2758e-05 	0 -0.0430443 	0.000254926 	-2.01378e-23 -0.0429623 	0.000488184 	-4.59885e-23 -0.042901 	0.000721952 	-7.19779e-23 -0.0428605 	0.000956225 	-9.81057e-23 -0.042796 	0.00118097 	-1.2462e-22 -0.0426488 	0.00137679 	-1.53366e-22 -0.0424637 	0.00159571 	-1.53695e-22 -0.0422984 	0.00181616 	-1.53234e-22 -0.0421531 	0.00203814 	-1.51974e-22 -0.0421023 	0.00212891 	-1.51136e-22 -0.0420896 	0.00215578 	-1.51407e-22 -0.0420771 	0.00218268 	-1.51674e-22 -0.042065 	0.0022096 	-1.51937e-22 -0.0420531 	0.00223655 	-1.52195e-22 -0.0420321 	0.00226811 	-1.53243e-22 -0.0417549 	0.0024758 	-1.25461e-22 -0.0414935 	0.00268505 	-9.76553e-23 -0.0412524 	0.00289697 	-6.96637e-23 -0.0410322 	0.0031116 	-4.14843e-23 -0.0407197 	0.00338797 	-1.86081e-23 -0.040406 	0.00358446 	-3.42545e-24 -0.0400831 	0.00378815 	5.10388e-24 -0.0397807 	0.00399556 	1.3858e-23 -0.0394994 	0.00420675 	2.28417e-23 -0.0389758 	0.0045678 	1.6943e-23 -0.0386149 	0.00472464 	2.11424e-22 -0.038254 	0.00492953 	2.55039e-22 -0.0379143 	0.00513934 	2.9995e-22 -0.0374967 	0.00541323 	2.75118e-22 -0.0368549 	0.00584373 	7.39949e-23 -0.0364357 	0.00597704 	4.75062e-23 -0.0360405 	0.00613391 	3.02965e-23 -0.035688 	0.00635441 	4.23308e-23 -0.0350349 	0.00678667 	7.49435e-23 -0.0344071 	0.00724551 	1.07842e-22 -0.0339622 	0.00737695 	5.87372e-23 -0.0335351 	0.00751516 	9.43013e-24 -0.0328749 	0.00783137 	7.68952e-26 -0.0322614 	0.00829821 	1.67243e-23 -0.0316812 	0.00879358 	3.32166e-23 -0.0312438 	0.00894261 	5.13234e-24 -0.0305961 	0.00926607 	0 -0.0299338 	0.00964539 	0 -0.0293141 	0.0100466 	0 -0.0287521 	0.010461 	0 -0.0287454 	0.010467 	0 -0.0287388 	0.0104731 	0 -0.0287321 	0.0104791 	0 -0.0287243 	0.0104858 	0 -0.028714 	0.0104938 	0 -0.0280524 	0.0108911 	0 -0.027437 	0.0113182 	0 -0.0268667 	0.0117733 	0 -0.0262439 	0.0123056 	0 -0.0254609 	0.0130012 	0 -0.0248225 	0.0133953 	0 -0.0242167 	0.013832 	0 -0.023472 	0.0143802 	0 -0.0227946 	0.0149766 	0 -0.0220967 	0.01572 	0 -0.022096 	0.0157207 	0 -0.0220953 	0.0157214 	0 -0.0220943 	0.0157222 	0 -0.0220933 	0.015723 	0 -0.0220924 	0.0157237 	0 -0.0213283 	0.0163523 	0 -0.0206324 	0.0170443 	0 -0.0199921 	0.0177957 	-2.47587e-26 -0.0192785 	0.0185644 	-2.9186e-25 -0.0184419 	0.0196632 	-6.43685e-25 -0.0183487 	0.0197876 	-6.45277e-25 -0.0182575 	0.019914 	-6.4715e-25 -0.0181628 	0.0200328 	-6.82676e-24 -0.0180623 	0.0201402 	-2.15536e-23 -0.017969 	0.0202439 	-3.55232e-23 -0.0171894 	0.0210841 	-3.15093e-23 -0.0164892 	0.0220145 	-2.40814e-23 -0.0158342 	0.022877 	-5.19662e-23 -0.0152601 	0.0237471 	-1.10186e-22 -0.0148585 	0.0246426 	-1.88937e-22 -0.0147655 	0.0248372 	-2.52971e-22 -0.014674 	0.025028 	-3.02323e-22 -0.0145815 	0.0251759 	-2.40126e-22 -0.0144906 	0.0253257 	-1.78344e-22 -0.0143923 	0.0254929 	-1.10692e-22 -0.013939 	0.0262156 	2.52279e-22 -0.0135284 	0.0269918 	6.02889e-22 -0.0131588 	0.0278187 	9.4151e-22 -0.0129168 	0.0284129 	6.47403e-22 -0.0127483 	0.0288951 	2.28011e-22 -0.0121002 	0.0299694 	-1.29249e-22 -0.0115064 	0.0311277 	-4.91338e-22 -0.0111306 	0.0318224 	-8.96059e-23 -0.0108947 	0.0325916 	6.56948e-22 -0.0108005 	0.0333396 	1.629e-21 -0.0104554 	0.0341849 	2.27392e-21 -0.0102197 	0.0347534 	2.03761e-21 -0.0100219 	0.0352543 	1.55455e-21 -0.0098337 	0.035773 	1.0816e-21 -0.00957393 	0.0365507 	4.09328e-22 -0.00948282 	0.0368542 	3.06737e-22 -0.00939427 	0.0371626 	2.04409e-22 -0.00930823 	0.037476 	1.0234e-22 -0.00922802 	0.0377881 	2.86004e-24 -0.00929319 	0.0378419 	3.03134e-24 -0.00878068 	0.0387693 	-8.40183e-23 -0.00850886 	0.0397576 	-2.94243e-22 -0.00825903 	0.0407929 	-5.08395e-22 -0.00816341 	0.0416002 	-7.25946e-22 -0.00840225 	0.0417538 	-9.3819e-22 -0.0077278 	0.0429175 	-6.14376e-22 -0.00713091 	0.0441627 	-1.60543e-22 -0.00695275 	0.0453147 	1.24511e-21 -0.00724749 	0.0454766 	2.36777e-21 -0.00752554 	0.0456042 	3.45226e-21 -0.00684672 	0.0469962 	1.91994e-21 -0.00619482 	0.0484914 	4.0861e-22 -0.00603468 	0.0491188 	6.54439e-25 -0.00635848 	0.0492418 	3.6394e-24 -0.0066663 	0.0493257 	6.54349e-24 -0.00598813 	0.0509381 	2.7034e-24 -0.00548783 	0.0522527 	0 -0.00538008 	0.0526468 	0 -0.00551076 	0.0528575 	-2.99909e-21 -0.00583773 	0.0528772 	-8.50792e-21 -0.00516581 	0.054695 	-1.61257e-21 -0.00492827 	0.0554368 	0 -0.00482406 	0.0558558 	0 -0.0047225 	0.0562958 	0 -0.00505666 	0.0562325 	-1.07951e-23 -0.00448943 	0.0579477 	0 -0.00438743 	0.0583617 	0 -0.00428779 	0.058797 	0 -0.00419046 	0.0592532 	0 -0.00433624 	0.0593486 	2.53978e-21 -0.00397463 	0.0605758 	3.30261e-37 -0.0038801 	0.0609985 	9.66701e-37 -0.00378756 	0.0614416 	1.60203e-36 -0.00369695 	0.0619047 	2.23625e-36 -0.00369609 	0.062213 	2.98472e-36 -0.003543 	0.0628229 	3.24672e-36 -0.00348827 	0.0630995 	2.69746e-36 -0.00343424 	0.0633842 	2.15125e-36 -0.00338089 	0.063677 	1.60805e-36 -0.00330975 	0.0640833 	8.78321e-37 -0.00328671 	0.0642222 	6.94514e-37 -0.0032638 	0.0643627 	5.10785e-37 -0.00324103 	0.0645046 	3.27134e-37 -0.00321838 	0.0646481 	1.4356e-37 -0.00321814 	0.0646389 	4.48458e-39 -0.00313361 	0.0651344 	-5.1852e-37 -0.00307069 	0.0655625 	-1.08688e-36 -0.00300894 	0.0660058 	-1.65603e-36 -0.00294835 	0.0664641 	-2.22596e-36 -0.00297805 	0.0662633 	-2.79598e-36 -0.00285817 	0.0670711 	-2.17316e-36 -0.00282797 	0.0675059 	-1.55167e-36 -0.00279842 	0.0679499 	-9.3058e-37 -0.00276953 	0.0684031 	-3.09898e-37 -0.00288399 	0.0676763 	0 -0.00273812 	0.0688301 	0 -0.00276142 	0.069289 	0 -0.00278466 	0.0697468 	0 -0.00280782 	0.0702036 	0 -0.00301752 	0.0689153 	0 -0.00283899 	0.0704686 	0 -0.00294869 	0.0709855 	0 -0.00305701 	0.071484 	0 -0.00316398 	0.0719646 	0 -0.00349366 	0.0699872 	0 -0.00324599 	0.0720542 	0 -0.00349332 	0.0726881 	0 -0.00373645 	0.0732749 	0 -0.00400294 	0.0734353 	0 -0.00446144 	0.07081 	0 -0.00422808 	0.0732167 	0 -0.00450616 	0.0744643 	0 -0.00495759 	0.0752209 	0 -0.00546743 	0.0743471 	0 -0.00606541 	0.0710479 	0 -0.00588227 	0.0740575 	0 -0.00604503 	0.0764452 	0 -0.00680498 	0.0775173 	0 -0.00756977 	0.0744629 	0 -0.00830532 	0.069903 	0 -0.00824418 	0.0741321 	0 -0.00820362 	0.0785386 	0 -0.00907806 	0.0787838 	0 -0.00990863 	0.0724273 	0 -0.010644 	0.0655223 	0 -0.0108544 	0.0722735 	0 -0.011118 	0.0793624 	0 -0.010572 	0.0757124 	0 -0.0110406 	0.0654306 	0 -0.0113134 	0.0543569 	0 -0.0120377 	0.0665154 	0 -0.0115206 	0.0668557 	0 -0.0100129 	0.0581068 	0 -0.00850533 	0.0493579 	0 -0.00720927 	0.0312871 	0 -0.00791609 	0.0462843 	0 -0.00643024 	0.0375968 	0 -0.00494439 	0.0289092 	0 -0.00345854 	0.0202216 	0 0 	0 	0