# vtk DataFile Version 2.0
track0
ASCII
DATASET POLYDATA
POINTS 41143 float
0.05 8.57988e-20 2.57396e-18
0.05 0.00217391 -1.05592e-17
0.05 0.00217391 -1.05592e-17
0.05 0.00217391 -1.05592e-17
0.05 0.00217391 -1.05592e-17
0.05 0.00217391 -1.05592e-17
0.05 0.00217391 -1.38778e-17
0.0493333 0.00217502 -3.19189e-18
0.0486667 0.00217719 -4.71845e-18
0.048 0.00218093 -4.38242e-18
0.0473334 0.00218785 -4.33738e-18
0.0466667 0.00219733 -6.93889e-18
0.046 0.00220922 -7.35523e-18
0.0453333 0.00222058 -1.30451e-17
0.0446667 0.00223256 -1.05415e-17
0.0440001 0.00224756 -1.48655e-17
0.0433333 0.00226604 -6.93889e-18
0.0426667 0.00228835 -3.19189e-18
0.0419999 0.00230872 -2.29025e-18
0.0413332 0.00232935 -1.84621e-18
0.0406666 0.00235294 -3.91844e-18
0.04 0.00238052 -5.55112e-18
0.0393333 0.00241324 -5.27356e-18
0.0386665 0.00244283 -7.84071e-18
0.0379997 0.00247317 -1.03147e-17
0.0373331 0.00250652 -7.59053e-19
0.0366667 0.00254374 1.38778e-18
0.036 0.00258731 -8.04912e-18
0.0353331 0.00262681 -2.98119e-18
0.0346663 0.00266859 -6.50701e-18
0.0339997 0.00271357 -1.16771e-17
0.0333333 0.00276187 -6.93889e-18
0.0326667 0.00281732 -5.82867e-18
0.0319998 0.00286968 -4.37109e-18
0.0313331 0.00292547 -3.31638e-18
0.0306668 0.00298482 1.83088e-19
0.03 0.00304796 0
0.0294499 0.00310504 2.30388e-18
0.0288998 0.00316182 -3.02497e-18
0.0283499 0.00322128 -2.99834e-18
0.0278004 0.00328351 -7.90942e-18
0.0273799 0.00333333 3.16954e-18
0.0272373 0.00335083 -2.73792e-18
0.0270947 0.00336854 2.4569e-18
0.0269521 0.00338645 7.65179e-18
0.0268095 0.00340457 3.13229e-18
0.0266667 0.00342293 4.38715e-18
0.026 0.00351158 8.77193e-18
0.0253338 0.00360344 1.03892e-17
0.0246682 0.00370012 4.36892e-18
0.0240034 0.00380181 1.06802e-17
0.0233333 0.00390969 1.70813e-17
0.0226667 0.00403606 1.06258e-17
0.0219994 0.00415921 1.73597e-17
0.0213331 0.00428766 1.23533e-17
0.0206681 0.00442224 1.5949e-17
0.02 0.00457404 2.26442e-17
0.0193333 0.00475312 2.12018e-17
0.0186665 0.00493157 1.43881e-17
0.0179995 0.00510932 1.61458e-17
0.017336 0.0052997 1.91367e-17
0.0166667 0.00552124 1.80411e-17
0.0160624 0.00575033 2.64894e-17
0.0154591 0.00598163 2.43921e-17
0.0148599 0.00622369 2.36609e-17
0.0142678 0.00648235 1.8249e-17
0.0138778 0.00666667 1.99099e-17
0.0137689 0.00672094 2.00912e-17
0.0136604 0.00677597 1.88842e-17
0.0135523 0.00683175 1.76765e-17
0.0134446 0.00688831 1.31076e-17
0.0133333 0.006948 2.03482e-17
0.0126667 0.00731505 1.21041e-17
0.0120123 0.00770366 1.49264e-17
0.0113733 0.00811688 1.29049e-17
0.0107514 0.00855561 1.37391e-17
0.01 0.00914608 2.498e-17
0.00980946 0.00931687 2.40682e-17
0.00962055 0.00948946 2.45401e-17
0.00943332 0.00966387 2.49522e-17
0.00924781 0.00984011 2.24072e-17
0.00908281 0.01 2.498e-17
0.00859958 0.0104767 2.89464e-17
0.00813946 0.0109758 2.15467e-17
0.00770392 0.0114964 1.77649e-17
0.00729203 0.012036 2.05486e-17
0.00666667 0.0129269 2.498e-17
0.00661668 0.0130082 2.21212e-17
0.00656699 0.0130897 3.17529e-17
0.00651761 0.0131713 2.88951e-17
0.00646853 0.0132532 2.39222e-17
0.00642059 0.0133333 2.498e-17
0.00602301 0.014 2.17881e-17
0.0056618 0.014687 1.82153e-17
0.00533127 0.0153894 1.644e-17
0.00502748 0.0161037 1.26237e-17
0.00479055 0.0166667 1.21403e-17
0.0045121 0.0173333 1.09243e-17
0.00427316 0.0180152 1.3104e-17
0.00406027 0.0187056 1.22401e-17
0.00385824 0.0193992 1.29419e-17
0.00369292 0.02 1.86115e-17
0.003621 0.0202584 1.23912e-17
0.00355477 0.0205182 9.8618e-18
0.00349038 0.0207786 4.50452e-18
0.00342745 0.0210393 8.80137e-19
0.00333333 0.0214387 7.13494e-18
0.00324728 0.0218176 1.23467e-17
0.00316386 0.0221972 1.35956e-17
0.003083 0.0225772 9.29756e-18
0.00300459 0.0229578 1.19425e-17
0.00292965 0.0233333 1.11022e-17
0.00279214 0.024 1.06859e-17
0.00267013 0.0246697 1.40809e-17
0.00255585 0.0253407 8.88105e-18
0.00244868 0.0260129 1.0974e-17
0.00234579 0.0266667 6.93889e-18
0.00222972 0.0273333 1.27676e-17
0.00213251 0.028003 1.20118e-17
0.00205095 0.0286748 1.65994e-17
0.0019751 0.0293472 1.23233e-17
0.00189016 0.03 1.11022e-17
0.00179071 0.0306667 1.34615e-17
0.00171134 0.031336 1.58162e-17
0.00165103 0.0320074 1.5113e-17
0.0015928 0.0326789 8.50157e-18
0.00152242 0.0333333 9.94149e-18
0.00143639 0.034 8.89291e-18
0.00137183 0.0346691 8.84412e-18
0.00132702 0.0353398 7.6315e-18
0.00128315 0.0360105 1.28403e-17
0.00122524 0.0366667 1.07965e-17
0.0011504 0.0373333 1.61253e-17
0.00109859 0.0380022 1.98235e-17
0.00106075 0.038672 1.43547e-17
0.00102292 0.0393418 1.06687e-17
0.000976165 0.04 8.7827e-18
0.00091089 0.0406667 1.37486e-17
0.000870546 0.0413353 1.84682e-17
0.000837868 0.0420044 2.02543e-17
0.000805191 0.0426734 2.03647e-17
0.000768741 0.0433333 2.16181e-17
0.000711801 0.044 2.03252e-17
0.000682051 0.0446684 2.88431e-17
0.000653853 0.0453369 2.68475e-17
0.000625655 0.0460054 3.02445e-17
0.000597763 0.0466667 2.81479e-17
0.000548147 0.0473333 2.34427e-17
0.000523865 0.0480014 1.52282e-17
0.000499582 0.0486695 1.85222e-17
0.0004753 0.0493375 2.1226e-17
0.000451221 0.05 2.1453e-17
0.000408024 0.0506667 2.00331e-17
0.000387129 0.0513344 1.96187e-17
0.000366234 0.0520021 2.47683e-17
0.000345339 0.0526699 2.5391e-17
0.000324579 0.0533333 2.7215e-17
0.000286891 0.054 2.66533e-17
0.000268822 0.0546675 2.53664e-17
0.000250753 0.055335 2.19936e-17
0.000232685 0.0560025 2.53923e-17
0.000214705 0.0566667 3.15614e-17
0.000181506 0.0573333 2.30124e-17
0.000165589 0.0580006 2.41502e-17
0.000149672 0.0586679 3.79536e-17
0.000133754 0.0593352 3.44137e-17
0.000117898 0.06 3.58859e-17
9.43181e-05 0.0605245 2.74312e-17
8.27834e-05 0.0610494 3.00593e-17
7.12486e-05 0.0615744 3.16465e-17
5.97139e-05 0.0620993 3.05046e-17
3.25966e-05 0.0633333 3.6028e-17
2.60773e-05 0.0634863 4.21916e-17
2.27098e-05 0.0636393 3.96765e-17
1.93423e-05 0.0637924 4.27125e-17
1.59748e-05 0.0639454 4.54016e-17
0 0.0646714 4.8025e-17
0.05 0.00434783 5.94331e-18
0.0493333 0.00434873 8.02348e-18
0.0486667 0.0043527 1.77185e-18
0.048 0.00435907 3.67755e-18
0.0473334 0.0043671 2.34593e-18
0.0466667 0.00437805 4.5052e-18
0.046 0.00439301 -5.92805e-18
0.0453334 0.00440963 2.89269e-19
0.0446668 0.0044279 -2.21963e-18
0.0440003 0.0044478 2.39022e-18
0.0433333 0.00447159 -5.60157e-18
0.0426667 0.0045006 -8.53082e-18
0.042 0.00453007 -4.51815e-18
0.0413334 0.00456024 -4.30223e-18
0.0406669 0.00459206 -7.27006e-18
0.04 0.00462947 -1.74241e-17
0.0393333 0.00467338 -1.61094e-17
0.0386666 0.00471675 -2.10389e-17
0.0379999 0.00475958 -1.7973e-17
0.0373333 0.00480469 -1.25377e-17
0.0366667 0.00485738 -1.15853e-17
0.036 0.00491796 -1.19305e-17
0.0353332 0.00497727 -1.80091e-17
0.0346663 0.00503529 -1.83699e-17
0.0339998 0.005097 -1.69613e-17
0.0333333 0.0051677 -2.08167e-17
0.0326667 0.00524784 -2.1233e-17
0.0319998 0.00532628 -2.0955e-17
0.0313327 0.00540299 -2.28106e-17
0.0306664 0.00548572 -2.71767e-17
0.03 0.00557859 -2.498e-17
0.0293333 0.0056826 -2.53964e-17
0.0286664 0.00578485 -3.52491e-17
0.028 0.00589049 -2.89094e-17
0.0273348 0.00600344 -3.23336e-17
0.0266667 0.0061249 -3.05311e-17
0.0261284 0.00623325 -3.10225e-17
0.0255901 0.00634171 -3.15138e-17
0.0250529 0.00645562 -3.65173e-17
0.024517 0.00657522 -3.56511e-17
0.0241276 0.00666667 -3.80988e-17
0.0239687 0.00670538 -4.19976e-17
0.02381 0.00674467 -4.24272e-17
0.0236515 0.00678453 -3.6612e-17
0.023493 0.00682499 -3.35727e-17
0.0233333 0.00686641 -3.50271e-17
0.0226667 0.00704421 -3.94865e-17
0.0220025 0.00723116 -3.70223e-17
0.0213415 0.00742891 -4.14048e-17
0.020684 0.00763798 -3.83793e-17
0.02 0.0078722 -4.66017e-17
0.0193333 0.00812572 -4.31928e-17
0.0186708 0.00838976 -4.66225e-17
0.0180127 0.00866493 -4.69602e-17
0.0173621 0.00895719 -4.26723e-17
0.0166667 0.00929821 -4.71845e-17
0.0164059 0.00943857 -4.20677e-17
0.0161461 0.00958093 -4.21543e-17
0.0158877 0.00972555 -4.17239e-17
0.0156309 0.00987317 -4.40718e-17
0.0154162 0.01 -4.996e-17
0.0149996 0.0102518 -5.00289e-17
0.0145891 0.0105133 -4.37247e-17
0.0141851 0.0107847 -4.7909e-17
0.0137878 0.011066 -4.75539e-17
0.0133333 0.0114078 -4.72738e-17
0.0128564 0.0117929 -4.79788e-17
0.0123897 0.0121904 -5.29193e-17
0.0119338 0.0126003 -5.97724e-17
0.0114895 0.0130227 -6.04869e-17
0.0111807 0.0133333 -5.27369e-17
0.0109445 0.0135805 -5.03774e-17
0.0107138 0.0138327 -5.77859e-17
0.0104884 0.0140898 -5.36769e-17
0.0102684 0.0143515 -5.63443e-17
0.01 0.014684 -5.23536e-17
0.00969578 0.0150805 -5.18544e-17
0.00940079 0.015484 -5.23457e-17
0.009115 0.015894 -5.26495e-17
0.00883792 0.01631 -5.11473e-17
0.00860853 0.0166667 -5.55112e-17
0.00822016 0.0172886 -5.43194e-17
0.00785938 0.017927 -5.67208e-17
0.00752497 0.0185795 -5.48962e-17
0.00720904 0.0192412 -5.32433e-17
0.00687124 0.02 -5.63879e-17
0.00683033 0.0200984 -5.51023e-17
0.00679003 0.0201971 -5.60823e-17
0.00675023 0.0202959 -5.55045e-17
0.00671084 0.0203949 -5.31923e-17
0.00666667 0.0205073 -5.4244e-17
0.00644737 0.0210725 -5.56076e-17
0.00623968 0.0216421 -5.34476e-17
0.00604297 0.0222155 -4.96109e-17
0.00585655 0.0227924 -4.99987e-17
0.00568781 0.0233333 -4.996e-17
0.00547845 0.024 -5.38458e-17
0.00529157 0.0246733 -5.28854e-17
0.00512606 0.0253522 -5.22516e-17
0.00496844 0.026033 -4.96802e-17
0.00481784 0.0266667 -4.81599e-17
0.00465584 0.0273333 -4.80442e-17
0.00451483 0.0280048 -5.50769e-17
0.00439045 0.0286795 -5.05364e-17
0.00427025 0.0293549 -5.64129e-17
0.00415454 0.03 -6.03482e-17
0.00402981 0.0306667 -6.43038e-17
0.00392427 0.0313366 -6.12082e-17
0.00382304 0.0320073 -5.88539e-17
0.00372544 0.0326785 -5.44206e-17
0.0036337 0.0333333 -5.1848e-17
0.00357363 0.0337544 -4.86181e-17
0.0035185 0.0341762 -5.16403e-17
0.00346472 0.0345981 -5.08481e-17
0.00341224 0.0350202 -5.64122e-17
0.00333333 0.0356711 -4.85723e-17
0.00331011 0.0358702 -4.44476e-17
0.00328714 0.0360693 -5.0037e-17
0.00326444 0.0362685 -4.72992e-17
0.00324199 0.0364677 -4.87244e-17
0.00321983 0.0366667 -4.85723e-17
0.00314498 0.0373333 -5.17641e-17
0.00307432 0.0380005 -5.32221e-17
0.00300654 0.0386679 -5.74431e-17
0.00294153 0.0393356 -5.47758e-17
0.00287951 0.04 -5.68989e-17
0.00281424 0.0406667 -6.00908e-17
[...]
POINT_DATA 41143
 FIELD attributes 1
U 3 41143 float
-6.4509e-19 	-1.7021e-21 	0
-0.015235 	2.53528e-05 	0 -0.015235 	2.53528e-05 	0 -0.015235 	2.53528e-05 	0 -0.015235 	2.53528e-05 	0 -0.015235 	2.53528e-05 	0 -0.015235 	2.53528e-05 	0 -0.0155686 	5.05063e-05 	0 -0.015806 	8.87826e-05 	-3.92041e-25 -0.0157663 	0.000163573 	-1.8754e-24 -0.0155129 	0.000220577 	-3.36572e-24 -0.0151887 	0.000271079 	-4.86189e-24 -0.0155134 	0.000264268 	1.90461e-22 -0.0156961 	0.000282007 	3.21052e-22 -0.0155957 	0.000350942 	3.17214e-22 -0.0153619 	0.000425784 	1.8969e-22 -0.0150666 	0.000504303 	-6.02019e-24 -0.0153686 	0.000469456 	3.45289e-23 -0.0154597 	0.000478441 	5.49744e-23 -0.0153098 	0.000541759 	5.07604e-23 -0.0151054 	0.000624889 	2.72323e-23 -0.0148501 	0.000728898 	-1.6376e-23 -0.0151186 	0.0006709 	-1.2015e-23 -0.0150886 	0.000686648 	-2.90741e-23 -0.0149032 	0.000745499 	-5.84409e-23 -0.0147192 	0.000822128 	-8.90709e-23 -0.0145118 	0.000948418 	-1.23132e-22 -0.0147389 	0.00087278 	-9.29707e-23 -0.0145684 	0.000912919 	-8.78982e-23 -0.0143622 	0.000969181 	-8.62316e-23 -0.0141724 	0.00102722 	-8.48505e-23 -0.0140181 	0.00116588 	-1.11428e-22 -0.0141163 	0.00110834 	-1.94551e-22 -0.0138879 	0.0011622 	-1.56202e-22 -0.0136752 	0.00121818 	-1.17272e-22 -0.013479 	0.00127635 	-7.77376e-23 -0.0133427 	0.00138432 	1.08622e-23 -0.0132957 	0.00137234 	-4.69482e-23 -0.0131104 	0.00141768 	-3.34333e-23 -0.0129356 	0.00146476 	-1.92392e-23 -0.012772 	0.00151366 	-4.34172e-24 -0.0126554 	0.00155253 	7.61926e-24 -0.0126186 	0.00156641 	1.19071e-23 -0.0125826 	0.00158043 	1.62478e-23 -0.0125475 	0.00159459 	2.06419e-23 -0.0125132 	0.00160889 	2.50896e-23 -0.0124425 	0.0016545 	9.24004e-24 -0.0122036 	0.00168262 	6.85408e-24 -0.0119999 	0.00174312 	7.77442e-24 -0.0118124 	0.00180692 	8.66385e-24 -0.0116416 	0.00187415 	9.52104e-24 -0.0112837 	0.00213902 	5.16088e-23 -0.0109326 	0.00201763 	3.82118e-22 -0.0107438 	0.00207129 	4.69078e-22 -0.0105814 	0.0021412 	5.41633e-22 -0.0103176 	0.0023445 	4.40823e-22 -0.00998376 	0.00268179 	1.81871e-22 -0.00967602 	0.00258931 	4.48757e-22 -0.00936667 	0.00249614 	7.15626e-22 -0.00905334 	0.00259763 	7.29816e-22 -0.00878595 	0.00290823 	4.95248e-22 -0.00856569 	0.00324761 	2.61861e-22 -0.00834172 	0.00319784 	4.66448e-22 -0.00805951 	0.00325612 	5.02275e-22 -0.00776129 	0.00339014 	4.35116e-22 -0.00749676 	0.00354371 	3.64585e-22 -0.00734435 	0.00366003 	3.15147e-22 -0.00729658 	0.00369983 	3.01153e-22 -0.00725028 	0.0037406 	2.87012e-22 -0.00720547 	0.00378234 	2.72724e-22 -0.00714716 	0.00383603 	2.71099e-22 -0.00708104 	0.00389864 	2.75755e-22 -0.0066763 	0.00396502 	1.83048e-22 -0.00640914 	0.00414406 	9.8864e-23 -0.00617173 	0.00435436 	1.92807e-23 -0.00590211 	0.004638 	2.62051e-23 -0.00562399 	0.00504075 	3.2291e-23 -0.00556227 	0.00508221 	1.86273e-23 -0.00550368 	0.00512658 	4.95718e-24 -0.0054473 	0.00517493 	3.0267e-23 -0.00539363 	0.00522688 	7.7758e-23 -0.00534836 	0.00527622 	1.2041e-22 -0.00504096 	0.00546737 	1.21266e-22 -0.00476656 	0.00569808 	1.16156e-22 -0.00453219 	0.00593679 	1.05035e-22 -0.00433618 	0.00617765 	8.83868e-23 -0.0040686 	0.00661585 	5.3697e-23 -0.0040518 	0.00664401 	8.89684e-23 -0.00403538 	0.00667268 	1.23936e-22 -0.00401935 	0.00670187 	1.58602e-22 -0.00401964 	0.00672341 	8.4584e-23 -0.00402176 	0.0067438 	4.01448e-25 -0.00363496 	0.00691391 	-6.79758e-22 -0.00342241 	0.00727215 	-1.1239e-21 -0.00326985 	0.00768837 	-1.50434e-21 -0.00336036 	0.00798489 	-1.19244e-21 -0.00343457 	0.00822301 	-9.46233e-22 -0.0030079 	0.00858315 	-6.22068e-22 -0.00274271 	0.00889481 	-3.65166e-22 -0.0026496 	0.00909715 	-1.98303e-22 -0.00256619 	0.00932523 	-2.65109e-23 -0.00269595 	0.00968539 	1.78089e-23 -0.00253036 	0.00992874 	1.45117e-24 -0.00248198 	0.010036 	0 -0.00244637 	0.0101343 	0 -0.00241229 	0.0102374 	0 -0.00236243 	0.0104022 	0 -0.00231955 	0.0105532 	0 -0.00227941 	0.0107134 	0 -0.00224192 	0.0108822 	0 -0.00220696 	0.0110595 	0 -0.00227028 	0.0110068 	0 -0.00202279 	0.0111024 	0 -0.00194981 	0.0114486 	0 -0.00188595 	0.0118291 	0 -0.0018961 	0.0120485 	0 -0.00205876 	0.0118241 	0 -0.00173822 	0.0119748 	0 -0.0014895 	0.0122676 	0 -0.00144253 	0.0127883 	0 -0.00163439 	0.012562 	0 -0.00182339 	0.0122234 	0 -0.00148285 	0.0125047 	0 -0.00116068 	0.0129195 	0 -0.00112867 	0.0130176 	0 -0.00136133 	0.0126574 	0 -0.00157397 	0.012197 	0 -0.00121817 	0.0126247 	0 -0.000883605 	0.0132284 	0 -0.000840847 	0.0128548 	0 -0.00109483 	0.012405 	0 -0.00132702 	0.0118204 	0 -0.000961073 	0.0124063 	0 -0.000720381 	0.0127539 	0 -0.000695573 	0.0123147 	0 -0.000836685 	0.0117786 	0 -0.00108423 	0.0110735 	0 -0.0007135 	0.0118251 	0 -0.000577484 	0.0118238 	0 -0.000555808 	0.0113799 	0 -0.000599924 	0.0108616 	0 -0.0008581 	0.0100468 	0 -0.000488082 	0.0109665 	0 -0.000447802 	0.0106161 	0 -0.000429288 	0.0101772 	0 -0.000410775 	0.00973832 	0 -0.000658022 	0.00884155 	0 -0.000349061 	0.0096035 	0 -0.000333598 	0.00917807 	0 -0.000318135 	0.00875264 	0 -0.000302672 	0.00832722 	0 -0.000481852 	0.00743639 	0 -0.000247874 	0.00792137 	0 -0.00023518 	0.00751572 	0 -0.000222487 	0.00711007 	0 -0.000209793 	0.00670442 	0 -0.000332389 	0.00587965 	2.90596e-37 -0.000164838 	0.00608937 	0 -0.000154456 	0.00570586 	0 -0.000144075 	0.00532234 	0 -0.000133693 	0.00493883 	0 -0.000210429 	0.0042257 	2.93212e-40 -9.93645e-05 	0.00416565 	0 -9.06506e-05 	0.00380034 	0 -8.19368e-05 	0.00343503 	0 -7.32229e-05 	0.00306972 	0 -0.000112286 	0.00249775 	-1.05393e-37 -5.10121e-05 	0.00232146 	0 -4.47736e-05 	0.00203755 	0 -3.8535e-05 	0.00175365 	0 -3.22964e-05 	0.00146974 	0 -3.1483e-05 	0.000738565 	0 -1.50793e-05 	0.000685293 	0 -1.31321e-05 	0.000596797 	0 -1.11848e-05 	0.000508301 	0 -9.23749e-06 	0.000419805 	0 0 	0 	0
-0.0296308 	4.01576e-05 	0 -0.0298523 	0.000177948 	0 -0.029961 	0.000285922 	-6.94662e-25 -0.0299392 	0.000361001 	-2.15561e-24 -0.029752 	0.000488459 	-1.77664e-23 -0.0294347 	0.000660418 	-4.53524e-23 -0.0295666 	0.000737376 	-2.24387e-22 -0.0296254 	0.000811925 	-3.34778e-22 -0.0295675 	0.000882594 	-3.40622e-22 -0.0292878 	0.00104496 	-2.30592e-22 -0.0289069 	0.00125794 	-5.85218e-23 -0.0289506 	0.00127959 	-6.8362e-23 -0.0289672 	0.00131112 	-7.70418e-23 -0.0288788 	0.00137843 	-8.14338e-23 -0.0284842 	0.00159797 	-5.54916e-23 -0.0280638 	0.00184847 	-2.40653e-23 -0.0280273 	0.00182332 	-4.86685e-23 -0.0279877 	0.00179783 	-7.32725e-23 -0.0278332 	0.00188371 	-9.64333e-23 -0.0273592 	0.00216217 	-9.23479e-23 -0.0269244 	0.00244664 	-8.78974e-23 -0.02682 	0.00238562 	-2.76412e-22 -0.026709 	0.00232358 	-4.65022e-22 -0.0264042 	0.00244473 	-4.49397e-22 -0.0259368 	0.00275165 	-2.29827e-22 -0.0255115 	0.00306664 	-9.68916e-24 -0.0253546 	0.00298241 	1.52818e-22 -0.0251895 	0.00289659 	3.15257e-22 -0.0246719 	0.00306299 	3.28447e-22 -0.0242292 	0.00337665 	2.40788e-22 -0.0238351 	0.00371873 	1.4047e-22 -0.023642 	0.00362483 	2.79337e-22 -0.0232537 	0.00368618 	3.15496e-22 -0.0227468 	0.00386234 	2.78972e-22 -0.0222687 	0.00404816 	2.41239e-22 -0.0219226 	0.00441272 	9.30894e-23 -0.021714 	0.00437531 	8.51687e-23 -0.0213149 	0.00451986 	1.1604e-22 -0.0209345 	0.00467179 	1.47428e-22 -0.0205738 	0.00483146 	1.79354e-22 -0.020326 	0.00495364 	2.0302e-22 -0.0202296 	0.00500773 	2.04873e-22 -0.0201351 	0.00506262 	2.06662e-22 -0.0200427 	0.00511834 	2.08386e-22 -0.0199523 	0.0051749 	2.10044e-22 -0.0197974 	0.00527998 	2.18237e-22 -0.0192929 	0.00543043 	1.97913e-22 -0.0188711 	0.00564561 	2.02166e-22 -0.018481 	0.00587607 	2.04028e-22 -0.0180472 	0.00618026 	2.23388e-22 -0.0174721 	0.00664444 	2.83257e-22 -0.0169825 	0.00676773 	1.60759e-22 -0.0165235 	0.00690951 	3.74068e-23 -0.0159645 	0.00717142 	0 -0.0155124 	0.00760669 	4.02988e-23 -0.0150831 	0.00811721 	8.14175e-23 -0.0149388 	0.00818847 	3.48766e-23 -0.0147859 	0.0082733 	0 -0.0145978 	0.00839209 	0 -0.0144173 	0.00851626 	0 -0.0142718 	0.00862541 	0 -0.0139442 	0.00888422 	0 -0.0136402 	0.00916234 	0 -0.0133605 	0.00946008 	0 -0.0130196 	0.009792 	0 -0.0126438 	0.0102084 	0 -0.0122923 	0.0104713 	0 -0.0119745 	0.0107646 	0 -0.0116422 	0.0110688 	0 -0.0113314 	0.0113988 	0 -0.0111355 	0.0116573 	0 -0.0109137 	0.0119274 	0 -0.0107059 	0.0122119 	0 -0.0104953 	0.0124819 	-1.83289e-23 -0.010285 	0.0127425 	-5.12624e-23 -0.0100388 	0.0130849 	-9.23496e-23 -0.00978658 	0.013385 	-9.86613e-23 -0.00955685 	0.0137108 	-1.06077e-22 -0.00935436 	0.0140432 	-1.36976e-22 -0.00919921 	0.0143051 	-2.84701e-22 -0.00908097 	0.0145424 	-4.10308e-22 -0.0085616 	0.0151486 	-6.3442e-22 -0.00810258 	0.0158109 	-8.23833e-22 -0.00777545 	0.0162856 	-5.28805e-22 -0.00748345 	0.0168096 	-2.38827e-22 -0.00728161 	0.0175123 	1.44174e-22 -0.00721407 	0.0176608 	2.41415e-22 -0.00715769 	0.0177803 	2.70521e-22 -0.00711105 	0.0178742 	2.39552e-22 -0.00706527 	0.0179694 	2.08918e-22 -0.0070144 	0.0180787 	1.74593e-22 -0.00677232 	0.0185731 	1.59352e-22 -0.00655484 	0.0191089 	1.4556e-22 -0.00636055 	0.0196832 	1.33134e-22 -0.00628739 	0.020155 	1.35317e-22 -0.00639979 	0.0203792 	1.60722e-22 -0.0058325 	0.021014 	1.00923e-22 -0.00529938 	0.021737 	4.22038e-23 -0.00520891 	0.0224961 	1.70281e-22 -0.00543178 	0.0228575 	3.56538e-22 -0.00563222 	0.0231773 	5.2855e-22 -0.00505223 	0.0240571 	2.33507e-22 -0.00458898 	0.0248916 	0 -0.00448483 	0.0252032 	0 -0.00458666 	0.0255717 	2.90775e-25 -0.00485487 	0.025948 	8.18247e-25 -0.00426772 	0.0270917 	2.9704e-26 -0.00414705 	0.0274735 	0 -0.00404972 	0.0278495 	0 -0.00395759 	0.0282501 	0 -0.00408757 	0.0286523 	-1.21528e-22 -0.0038284 	0.0292914 	0 -0.00376623 	0.0295461 	0 -0.00370608 	0.0298117 	0 -0.00364792 	0.0300878 	0 -0.00356124 	0.0305294 	0 -0.00353659 	0.03067 	0 -0.00351232 	0.0308127 	0 -0.00348844 	0.0309575 	0 -0.00346495 	0.0311044 	0 -0.0034873 	0.031063 	0 -0.00333897 	0.0315219 	0 -0.00324872 	0.0319907 	0 -0.00316292 	0.0324871 	0 -0.00308139 	0.03301 	0 -0.0031983 	0.0326649 	0 -0.00289439 	0.0333408 	0 -0.0028075 	0.0338646 	0 -0.00272466 	0.0344169 	0 -0.0026552 	0.0349488 	0 -0.0028996 	0.033949 	0 -0.00252958 	0.0348687 	0 -0.00238778 	0.0355201 	0 -0.00230744 	0.0361179 	0 -0.00235219 	0.0360829 	0 -0.00259953 	0.0349287 	0 -0.00223557 	0.0360141 	0 -0.00199721 	0.0369406 	0 -0.00191994 	0.0375721 	0 -0.00206324 	0.0369515 	0 -0.00230998 	0.0356498 	0 -0.00195693 	0.0368935 	0 -0.00164742 	0.0381568 	7.6118e-38 -0.0015754 	0.0388101 	6.4788e-37 -0.00180062 	0.0376118 	1.22125e-36 -0.00204488 	0.036172 	1.78776e-36 -0.00170662 	0.0375631 	1.15715e-36 -0.00137575 	0.0390891 	5.32817e-37 -0.00132713 	0.0395571 	7.8258e-40 -0.00157581 	0.038086 	1.66338e-39 -0.0018185 	0.0365179 	2.5339e-39 -0.00149753 	0.0380438 	1.57813e-39 -0.00118324 	0.0397074 	6.31413e-40 -0.00115197 	0.0399797 	-3.96567e-37 -0.00140385 	0.038395 	-9.75828e-37 -0.00165009 	0.0367057 	-1.5488e-36 -0.00134718 	0.0383556 	-9.26051e-37 -0.0010504 	0.0401451 	-3.0892e-37 -0.0010386 	0.0402563 	0 -0.00130549 	0.0385619 	0 -0.00156656 	0.0367501 	0 -0.00128072 	0.0385206 	0 -0.00100083 	0.0404335 	0 -0.00100578 	0.0403907 	0 -0.00130845 	0.0385779 	0 -0.00160412 	0.036624 	0 -0.00133344 	0.0385294 	0 -0.00106915 	0.0405836 	0 -0.001077 	0.0403431 	0 -0.00144805 	0.0383768 	0 -0.00180882 	0.0362251 	0 -0.00155302 	0.0383169 	0 -0.00130519 	0.0405715 	0 -0.00128151 	0.039962 	0 -0.00175782 	0.0377786 	0 -0.00222495 	0.0353056 	0 -0.0019915 	0.0377123 	0 -0.00180393 	0.0395472 	0 -0.00175784 	0.038537 	0 -0.0022187 	0.0362656 	0 -0.00283681 	0.0332243 	0 -0.00265355 	0.036234 	0 -0.00250964 	0.0370042 	0 -0.00239419 	0.0353019 	0 -0.0026269 	0.0328277 	0 -0.00341886 	0.0287729 	0 -0.00335759 	0.0330022 	0 -0.0030916 	0.0309532 	0 -0.00279407 	0.0279743 	0 -0.00249654 	0.0249954 	0 -0.00318295 	0.0195928 	0 -0.0030846 	0.0222202 	0 -0.00242334 	0.0174568 	0 -0.00176209 	0.0126934 	0 -0.00110083 	0.00792996 	0 -0.000163949 	0.000787711 	0 -0.00017286 	0.00100314 	0 -0.000136845 	0.000794144 	0 -0.000100831 	0.000585144 	0 -6.48164e-05 	0.000376144 	0 0 	0 	0
-0.0430675 	4.29075e-05 	0 -0.0430364 	0.000255026 	-2.0146e-23 -0.0429544 	0.000488234 	-4.60073e-23 -0.0428931 	0.000721951 	-7.20072e-23 -0.0428526 	0.000956172 	-9.81456e-23 -0.0427881 	0.00118088 	-1.2467e-22 -0.0426408 	0.00137665 	-1.53433e-22 -0.0424558 	0.00159552 	-1.5377e-22 -0.0422905 	0.00181592 	-1.53317e-22 -0.0421452 	0.00203785 	-1.52066e-22 -0.0420945 	0.00212848 	-1.51232e-22 -0.0420818 	0.00215537 	-1.51505e-22 -0.0420693 	0.00218229 	-1.51773e-22 -0.0420571 	0.00220923 	-1.52037e-22 -0.0420453 	0.00223619 	-1.52297e-22 -0.0420243 	0.00226778 	-1.53347e-22 -0.0417471 	0.00247543 	-1.25552e-22 -0.0414857 	0.00268463 	-9.77338e-23 -0.0412447 	0.00289651 	-6.97298e-23 -0.0410245 	0.00311109 	-4.15375e-23 -0.040712 	0.00338741 	-1.86505e-23 -0.0403984 	0.00358385 	-3.52062e-24 -0.0400755 	0.0037875 	5.00849e-24 -0.0397732 	0.00399486 	1.37617e-23 -0.0394919 	0.00420601 	2.27437e-23 -0.0389684 	0.004567 	1.69654e-23 -0.0386076 	0.0047238 	2.11333e-22 -0.0382467 	0.00492864 	2.54933e-22 -0.0379071 	0.00513841 	2.99827e-22 -0.0374895 	0.00541226 	2.75003e-22 -0.0368478 	0.00584267 	7.39936e-23 -0.0364286 	0.00597594 	4.75022e-23 -0.0360335 	0.00613278 	3.02875e-23 -0.0356811 	0.00635324 	4.2321e-23 -0.0350281 	0.00678542 	7.49301e-23 -0.0344005 	0.00724417 	1.07824e-22 -0.0339556 	0.00737559 	5.8726e-23 -0.0335286 	0.00751377 	9.42598e-24 -0.0328684 	0.00782992 	7.53331e-26 -0.032255 	0.00829667 	1.6721e-23 -0.031675 	0.00879194 	3.32115e-23 -0.0312376 	0.00894094 	5.1301e-24 -0.0305901 	0.00926435 	0 -0.0299279 	0.00964359 	0 -0.0293083 	0.0100448 	0 -0.0287465 	0.0104589 	0 -0.0287399 	0.010465 	0 -0.0287332 	0.0104711 	0 -0.0287265 	0.0104771 	0 -0.0287186 	0.0104839 	0 -0.0287083 	0.0104919 	0 -0.0280468 	0.0108891 	0 -0.0274315 	0.0113161 	0 -0.0268613 	0.0117712 	0 -0.0262386 	0.0123034 	0 -0.0254558 	0.0129988 	0 -0.0248175 	0.0133928 	0 -0.0242117 	0.0138295 	0 -0.0234673 	0.0143775 	0 -0.02279 	0.0149738 	0 -0.0220922 	0.015717 	0 -0.0220915 	0.0157178 	0 -0.0220908 	0.0157185 	0 -0.0220899 	0.0157192 	0 -0.0220889 	0.0157199 	0 -0.022088 	0.0157207 	0 -0.021324 	0.0163491 	0 -0.0206282 	0.0170411 	0 -0.019988 	0.0177924 	-9.02144e-27 -0.0192745 	0.018561 	-1.06339e-25 -0.0184381 	0.0196596 	-2.34528e-25 -0.0183448 	0.0197839 	-2.35108e-25 -0.0182537 	0.0199103 	-2.3579e-25 -0.0181591 	0.020029 	-6.38269e-24 -0.0180587 	0.0201364 	-2.10345e-23 -0.0179653 	0.02024 	-3.4933e-23 -0.0171859 	0.0210801 	-3.03685e-23 -0.0164858 	0.0220103 	-2.23778e-23 -0.0158309 	0.0228727 	-5.09529e-23 -0.015257 	0.0237427 	-1.1067e-22 -0.0148556 	0.0246377 	-1.90899e-22 -0.0147625 	0.0248325 	-2.55252e-22 -0.014671 	0.0250233 	-3.0486e-22 -0.0145785 	0.0251713 	-2.42444e-22 -0.0144876 	0.0253212 	-1.80445e-22 -0.0143893 	0.0254884 	-1.12552e-22 -0.0139361 	0.0262109 	2.49543e-22 -0.0135257 	0.0269869 	5.99328e-22 -0.0131563 	0.0278134 	9.37172e-22 -0.0129143 	0.0284075 	6.44627e-22 -0.0127459 	0.0288895 	2.27155e-22 -0.012098 	0.0299636 	-1.27953e-22 -0.0115042 	0.0311215 	-4.87863e-22 -0.0111285 	0.0318162 	-8.63375e-23 -0.0108927 	0.0325852 	6.60065e-22 -0.0107986 	0.0333331 	1.63138e-21 -0.0104534 	0.0341784 	2.27655e-21 -0.0102177 	0.034747 	2.0399e-21 -0.01002 	0.0352479 	1.55631e-21 -0.00983178 	0.0357666 	1.08283e-21 -0.009572 	0.0365444 	4.09769e-22 -0.00948097 	0.0368476 	3.07068e-22 -0.0093925 	0.0371559 	2.0463e-22 -0.00930654 	0.037469 	1.02451e-22 -0.00922639 	0.0377808 	2.86152e-24 -0.00929152 	0.0378346 	3.0328e-24 -0.00877924 	0.0387618 	-8.41357e-23 -0.00850749 	0.0397498 	-2.94488e-22 -0.00825773 	0.0407849 	-5.08769e-22 -0.00816206 	0.0415922 	-7.26451e-22 -0.00840087 	0.0417458 	-9.38825e-22 -0.00772656 	0.0429092 	-6.1481e-22 -0.0071299 	0.0441541 	-1.60515e-22 -0.00695171 	0.045306 	1.24532e-21 -0.00724643 	0.0454679 	2.36793e-21 -0.00752445 	0.0455956 	3.45237e-21 -0.00684576 	0.0469872 	1.92009e-21 -0.00619399 	0.0484822 	4.08815e-22 -0.00603391 	0.0491095 	6.54887e-25 -0.00635768 	0.0492326 	3.63939e-24 -0.00666548 	0.0493165 	6.54303e-24 -0.00598744 	0.0509286 	2.70347e-24 -0.00548717 	0.0522431 	0 -0.00537945 	0.0526371 	0 -0.0055102 	0.0528477 	-2.99952e-21 -0.00583716 	0.0528675 	-8.50779e-21 -0.00516536 	0.054685 	-1.61301e-21 -0.00492782 	0.0554268 	0 -0.00482364 	0.0558458 	0 -0.00472211 	0.0562857 	0 -0.00505631 	0.0562225 	-1.07944e-23 -0.00448914 	0.0579375 	0 -0.00438718 	0.0583515 	0 -0.00428757 	0.0587868 	0 -0.00419027 	0.0592429 	0 -0.00433608 	0.0593383 	2.5396e-21 -0.00397452 	0.0605655 	3.30213e-37 -0.00388002 	0.0609881 	9.66576e-37 -0.00378751 	0.0614312 	1.60182e-36 -0.00369693 	0.0618943 	2.23598e-36 -0.00369609 	0.0622026 	2.98433e-36 -0.00354305 	0.0628124 	3.24632e-36 -0.00348836 	0.0630889 	2.69728e-36 -0.00343436 	0.0633735 	2.15129e-36 -0.00338105 	0.0636662 	1.60829e-36 -0.00330997 	0.0640724 	8.78938e-37 -0.00328692 	0.0642114 	6.94999e-37 -0.003264 	0.064352 	5.11138e-37 -0.00324121 	0.064494 	3.27355e-37 -0.00321855 	0.0646376 	1.4365e-37 -0.00321832 	0.0646284 	4.48442e-39 -0.00313379 	0.065124 	-5.18399e-37 -0.0030709 	0.0655521 	-1.08668e-36 -0.00300917 	0.0659955 	-1.65575e-36 -0.0029486 	0.0664539 	-2.2256e-36 -0.00297837 	0.0662528 	-2.79554e-36 -0.00285846 	0.0670608 	-2.17279e-36 -0.00282827 	0.0674956 	-1.55137e-36 -0.00279875 	0.0679397 	-9.30359e-37 -0.00276988 	0.0683929 	-3.09752e-37 -0.00288442 	0.0676659 	0 -0.00273846 	0.06882 	0 -0.00276178 	0.0692789 	0 -0.00278503 	0.0697368 	0 -0.00280821 	0.0701937 	0 -0.00301802 	0.0689049 	0 -0.00283934 	0.0704586 	0 -0.00294904 	0.0709756 	0 -0.00305737 	0.0714743 	0 -0.00316434 	0.071955 	0 -0.00349414 	0.069977 	0 -0.00324623 	0.0720444 	0 -0.00349355 	0.0726784 	0 -0.00373668 	0.0732654 	0 -0.00400324 	0.073425 	0 -0.00446179 	0.0707997 	0 -0.00422833 	0.0732064 	0 -0.00450609 	0.0744548 	0 -0.0049575 	0.0752116 	0 -0.00546741 	0.0743366 	0 -0.00606542 	0.0710373 	0 -0.00588216 	0.074047 	0 -0.0060444 	0.0764358 	0 -0.00680431 	0.0775082 	0 -0.00756914 	0.0744518 	0 -0.00830471 	0.0698918 	0 -0.00824344 	0.0741211 	0 -0.00820276 	0.0785278 	0 -0.00907641 	0.0787715 	0 -0.00990701 	0.072415 	0 -0.0106424 	0.0655099 	0 -0.0108527 	0.0722613 	0 -0.0111162 	0.0793506 	0 -0.0105691 	0.0756982 	0 -0.0110378 	0.0654167 	0 -0.0113106 	0.0543431 	0 -0.0120348 	0.0665018 	0 -0.0115167 	0.0668342 	0 -0.0100091 	0.0580853 	0 -0.00850155 	0.0493363 	0 -0.00720541 	0.0312706 	0 -0.00791181 	0.0462598 	0 -0.00642677 	0.0375769 	0 -0.00494173 	0.028894 	0 -0.0034567 	0.0202111 	0 0 	0 	0