# vtk DataFile Version 2.0
track0
ASCII
DATASET POLYDATA
POINTS 41159 float
0.05 8.57988e-20 2.57396e-18
0.05 0.00217391 -1.05592e-17
0.05 0.00217391 -1.05592e-17
0.05 0.00217391 -1.05592e-17
0.05 0.00217391 -1.05592e-17
0.05 0.00217391 -1.05592e-17
0.05 0.00217391 -1.38778e-17
0.0493333 0.00217504 -8.74301e-18
0.0486667 0.00217722 -7.49401e-18
0.048 0.00218098 -7.67832e-18
0.0473334 0.0021879 -9.88859e-18
0.0466667 0.00219739 -5.55112e-18
0.046 0.00220931 -1.80411e-18
0.0453333 0.00222067 -5.75927e-18
0.0446667 0.00223266 -5.6841e-18
0.0440001 0.00224766 -7.92592e-18
0.0433333 0.00226615 -1.38778e-17
0.0426667 0.00228847 -1.01308e-17
0.0419999 0.00230884 -7.14748e-18
0.0413332 0.00232948 -1.12145e-17
0.0406666 0.00235307 -1.01636e-17
0.04 0.00238064 -1.249e-17
0.0393333 0.00241337 -1.42941e-17
0.0386665 0.00244296 -1.96368e-17
0.0379997 0.0024733 -2.52331e-17
0.0373331 0.00250665 -2.36587e-17
0.0366667 0.00254387 -1.80411e-17
0.036 0.00258744 -1.91513e-17
0.0353331 0.00262692 -1.89406e-17
0.0346663 0.0026687 -2.03837e-17
0.0339997 0.00271368 -2.57273e-17
0.0333333 0.00276197 -2.498e-17
0.0326667 0.00281741 -2.52576e-17
0.0319998 0.00286977 -2.17183e-17
0.0313331 0.00292555 -3.10718e-17
0.0306668 0.0029849 -2.72254e-17
0.03 0.00304803 -2.498e-17
0.02945 0.00310509 -2.12884e-17
0.0288999 0.00316186 -2.38418e-17
0.0283501 0.0032213 -2.66342e-17
0.0278006 0.00328351 -1.90113e-17
0.0273801 0.00333333 -2.04222e-17
0.0272375 0.00335084 -1.66153e-17
0.0270948 0.00336854 -1.97473e-17
0.0269521 0.00338646 -1.59402e-17
0.0268095 0.00340458 -1.62965e-17
0.0266667 0.00342294 -1.50417e-17
0.026 0.00351158 -2.3147e-17
0.0253338 0.00360342 -1.59787e-17
0.0246682 0.00370008 -1.36722e-17
0.0240034 0.00380176 -1.84631e-17
0.0233333 0.00390962 -2.03886e-17
0.0226667 0.00403598 -1.50479e-17
0.0219994 0.0041591 -1.80285e-17
0.0213331 0.00428753 -1.92187e-17
0.0206681 0.00442209 -1.49287e-17
0.02 0.00457386 1.13545e-18
0.0193333 0.00475291 -1.34748e-18
0.0186665 0.00493132 -7.90068e-18
0.0179995 0.00510905 -1.11768e-17
0.0173359 0.00529939 -1.2436e-17
0.0166667 0.00552089 -6.93889e-18
0.0160622 0.00575005 -1.26555e-18
0.0154585 0.00598142 -9.36238e-19
0.0148591 0.00622357 -6.86793e-18
0.0142667 0.00648233 -7.42223e-18
0.0138768 0.00666667 -9.23165e-18
0.0137681 0.00672083 -1.73773e-17
0.0136598 0.00677575 -1.30336e-17
0.0135518 0.00683143 -1.70172e-17
0.0134443 0.00688787 -1.14391e-17
0.0133333 0.00694743 -4.63091e-18
0.0126667 0.00731444 -1.28749e-17
0.0120123 0.00770301 -1.14403e-17
0.0113733 0.00811621 -1.30275e-17
0.0107514 0.00855493 -8.29354e-18
0.01 0.00914546 -6.93889e-18
0.00980934 0.00931637 -1.47893e-17
0.00962032 0.00948909 -1.57049e-17
0.00943298 0.00966363 -6.96753e-18
0.00924736 0.00984001 -7.4312e-18
0.00908231 0.01 -6.93889e-18
0.00859918 0.0104767 -8.52355e-18
0.00813916 0.0109758 -1.41893e-17
0.00770375 0.0114965 -1.48474e-17
0.00729199 0.0120361 -6.16631e-18
0.00666667 0.0129273 -1.80411e-17
0.00661675 0.0130085 -1.53487e-17
0.00656713 0.0130899 -1.95947e-17
0.00651782 0.0131715 -2.66157e-17
0.00646881 0.0132532 -2.32627e-17
0.00642094 0.0133333 -2.498e-17
0.00602352 0.014 -2.67841e-17
0.00566246 0.014687 -2.75813e-17
0.00533206 0.0153893 -2.69261e-17
0.00502841 0.0161036 -3.45801e-17
0.00479154 0.0166667 -2.75824e-17
0.00451319 0.0173333 -2.72369e-17
0.00427432 0.0180151 -2.57656e-17
0.00406153 0.0187055 -2.2801e-17
0.00385958 0.0193992 -2.59155e-17
0.0036943 0.02 -2.85868e-17
0.00362211 0.0202594 -2.64777e-17
0.00355564 0.0205203 -2.20551e-17
0.00349103 0.0207817 -1.90837e-17
0.00342788 0.0210434 -1.99304e-17
0.00333333 0.0214449 -3.1785e-17
0.00324763 0.0218226 -2.3735e-17
0.00316454 0.0222009 -2.66489e-17
0.00308398 0.0225797 -3.23342e-17
0.00300586 0.022959 -2.83009e-17
0.00293118 0.0233333 -3.19189e-17
0.00279373 0.024 -2.67841e-17
0.00267173 0.0246697 -2.65116e-17
0.00255744 0.0253407 -2.37357e-17
0.00245026 0.0260129 -2.0247e-17
0.00234739 0.0266667 -1.80411e-17
0.00223134 0.0273333 -1.91513e-17
0.00213414 0.028003 -1.50499e-17
0.00205254 0.0286748 -1.32352e-17
0.00197665 0.0293472 -1.75165e-17
0.00189171 0.03 -1.80411e-17
0.00179226 0.0306667 -2.05391e-17
0.00171287 0.031336 -1.71435e-17
0.00165253 0.0320074 -2.02729e-17
0.00159428 0.0326789 -1.99455e-17
0.00152387 0.0333333 -1.57469e-17
0.00143782 0.034 -1.03769e-17
0.00137323 0.0346691 -8.17016e-18
0.00132838 0.0353398 -4.31941e-18
0.00128446 0.0360105 -7.97417e-18
0.00122651 0.0366667 -5.85895e-18
0.00115163 0.0373333 -8.5098e-18
0.00109977 0.0380022 -3.59727e-18
0.00106192 0.038672 -6.11507e-18
0.00102406 0.0393418 -8.0644e-18
0.00097725 0.04 -1.13419e-17
0.000911923 0.0406667 -7.76366e-18
0.000871516 0.0413353 -6.16653e-18
0.000838805 0.0420044 -6.1135e-18
0.000806095 0.0426734 4.75374e-18
0.000769585 0.0433333 1.06162e-19
0.000712577 0.044 2.011e-19
0.000682758 0.0446684 3.9248e-19
0.000654518 0.0453369 1.17361e-18
0.000626278 0.0460054 5.95839e-18
0.000598345 0.0466667 8.71801e-18
0.000548647 0.0473333 5.83439e-18
0.000524314 0.0480014 1.03702e-17
0.000499982 0.0486695 1.53997e-17
0.000475649 0.0493376 1.22054e-17
0.000451521 0.05 1.59014e-17
0.000408228 0.0506667 1.30939e-17
0.000387276 0.0513344 1.68429e-17
0.000366324 0.0520022 2.09519e-17
0.000345371 0.0526699 2.5391e-17
0.000324554 0.0533333 3.13784e-17
0.000286758 0.054 2.94291e-17
0.000268625 0.0546675 2.39789e-17
0.000250492 0.055335 3.34427e-17
0.000232359 0.0560025 2.33106e-17
0.000214316 0.0566667 2.60109e-17
0.000180998 0.0573333 2.02377e-17
0.00016501 0.0580006 2.41512e-17
0.000149022 0.0586679 2.61575e-17
0.000133034 0.0593353 2.05359e-17
0.000117107 0.06 1.64583e-17
9.36858e-05 0.0605187 2.39531e-17
8.22185e-05 0.0610379 2.24082e-17
7.07512e-05 0.061557 2.60674e-17
5.92839e-05 0.0620762 2.74206e-17
3.1514e-05 0.0633333 3.18664e-17
2.52112e-05 0.0634805 3.60251e-17
2.19534e-05 0.0636277 3.13317e-17
1.86957e-05 0.0637749 3.3317e-17
1.5438e-05 0.0639221 3.35676e-17
0 0.0646198 3.12858e-17
0.05 0.00434783 5.94331e-18
0.0493333 0.00434876 7.32954e-18
0.0486667 0.00435276 2.46565e-18
0.048 0.00435914 2.63671e-18
0.0473334 0.0043672 6.50942e-18
0.0466667 0.00437816 1.075e-17
0.046 0.00439314 1.1419e-17
0.0453334 0.00440979 8.61569e-18
0.0446668 0.00442807 1.02704e-17
0.0440003 0.00444798 1.34942e-17
0.0433333 0.00447179 1.10531e-17
0.0426667 0.00450081 1.4022e-17
0.042 0.00453029 1.94225e-17
0.0413334 0.00456047 2.06778e-17
0.0406669 0.00459229 1.63246e-17
0.04 0.00462971 1.31067e-17
0.0393333 0.00467364 7.13545e-18
0.0386666 0.00471702 6.36932e-18
0.0379999 0.00475985 8.82898e-18
0.0373333 0.00480497 1.38306e-17
0.0366667 0.00485766 2.06777e-17
0.036 0.00491825 1.721e-17
0.0353332 0.00497756 1.46658e-17
0.0346663 0.00503558 1.44184e-17
0.0339998 0.0050973 1.60004e-17
0.0333333 0.005168 1.11022e-17
0.0326667 0.00524814 9.29812e-18
0.0319998 0.00532659 1.23517e-17
0.0313327 0.0054033 1.08422e-17
0.0306664 0.00548603 8.90506e-18
0.03 0.00557889 0
0.0293333 0.00568291 -4.16334e-19
0.0286664 0.00578516 -3.33022e-18
0.028 0.0058908 3.01002e-18
0.0273348 0.00600376 2.85127e-19
0.0266667 0.00612521 6.93889e-18
0.0261287 0.0062335 3.6715e-18
0.0255907 0.0063419 -9.837e-19
0.0250538 0.00645574 -5.03362e-18
0.0245182 0.00657526 -6.50566e-18
0.0241289 0.00666667 -1.24272e-17
0.0239698 0.00670544 -1.42439e-17
0.0238108 0.00674479 -7.7341e-18
0.023652 0.00678473 -1.02451e-17
0.0234933 0.00682525 -8.5931e-18
0.0233333 0.00686674 -1.28232e-17
0.0226667 0.00704455 -6.18041e-18
0.0220025 0.0072315 -6.49174e-18
0.0213415 0.00742926 -1.29554e-17
0.020684 0.00763833 -1.51334e-17
0.02 0.00787256 -2.33555e-17
0.0193333 0.0081261 -1.80384e-17
0.0186708 0.00839016 -1.71322e-17
0.0180127 0.00866534 -1.67753e-17
0.0173621 0.00895763 -1.7693e-17
0.0166667 0.00929868 -1.38778e-17
0.0164061 0.00943895 -1.56996e-17
0.0161465 0.00958121 -8.84828e-18
0.0158883 0.00972573 -1.04998e-17
0.0156317 0.00987325 -5.21534e-18
0.0154171 0.01 -6.93889e-18
0.0150004 0.0102519 -1.15217e-17
0.0145897 0.0105136 -1.18067e-17
0.0141855 0.0107851 -1.87663e-17
0.0137881 0.0110666 -1.28589e-17
0.0133333 0.0114086 -1.6744e-17
0.0128567 0.0117936 -1.32838e-17
0.0123903 0.0121909 -1.26727e-17
0.0119347 0.0126006 -1.12017e-17
0.0114907 0.0130228 -3.58574e-18
0.0111821 0.0133333 -1.04233e-17
0.0109456 0.0135809 -5.97945e-18
0.0107146 0.0138334 -3.67091e-18
0.010489 0.0140908 -2.32843e-18
0.0102688 0.0143528 5.5636e-19
0.01 0.0146859 1.05656e-18
0.0096962 0.0150821 -1.8937e-18
0.00940162 0.0154851 3.16683e-18
0.00911621 0.0158947 4.24736e-18
0.0088395 0.0163102 8.87151e-18
0.00861034 0.0166667 1.38778e-17
0.00822161 0.0172893 1.63743e-17
0.00786052 0.0179284 1.22337e-17
0.00752584 0.0185817 1.34573e-17
0.00720969 0.0192441 1.06019e-17
0.00687333 0.02 1.57818e-17
0.006832 0.0200994 1.56786e-17
0.0067913 0.0201991 2.09407e-17
0.0067511 0.0202989 2.74189e-17
0.00671132 0.020399 2.03659e-17
0.00666667 0.0205126 1.79339e-17
0.00644793 0.0210768 2.21186e-17
0.00624075 0.0216452 2.12402e-17
0.00604448 0.0222176 2.39439e-17
0.00585846 0.0227934 2.56321e-17
0.00569003 0.0233333 3.19189e-17
0.00548069 0.024 2.80331e-17
0.00529381 0.0246733 2.65649e-17
0.0051283 0.0253522 2.90164e-17
0.00497066 0.0260329 2.38758e-17
0.00482004 0.0266667 1.98467e-17
0.00465802 0.0273333 2.37788e-17
0.00451698 0.0280048 2.10739e-17
0.00439259 0.0286795 2.37097e-17
0.00427238 0.0293549 2.16532e-17
0.00415663 0.03 2.43028e-17
0.00403185 0.0306667 2.03473e-17
0.00392625 0.0313366 1.99736e-17
0.00382499 0.0320073 2.51067e-17
0.00372736 0.0326785 2.88462e-17
0.00363558 0.0333333 3.55789e-17
0.00357513 0.0337567 2.49355e-17
0.00351968 0.0341808 2.05299e-17
0.00346559 0.0346051 1.8551e-17
0.00341282 0.0350295 1.72113e-17
0.00333333 0.0356851 1.38778e-17
0.00331044 0.0358814 6.90076e-18
0.0032878 0.0360777 1.24142e-17
0.00326541 0.0362741 6.82577e-18
0.00324327 0.0364705 4.01334e-18
0.0032214 0.0366667 0
0.00314653 0.0373333 -6.66134e-18
0.00307581 0.0380005 -6.03759e-18
0.00300797 0.0386679 -7.48074e-18
0.0029429 0.0393356 -3.42576e-18
0.00288081 0.04 -6.93889e-18
[...]
POINT_DATA 41159
 FIELD attributes 1
U 3 41159 float
-6.43297e-19 	-1.68781e-21 	0
-0.0151906 	2.57425e-05 	0 -0.0151906 	2.57425e-05 	0 -0.0151906 	2.57425e-05 	0 -0.0151906 	2.57425e-05 	0 -0.0151906 	2.57425e-05 	0 -0.0151906 	2.57425e-05 	0 -0.0155238 	5.07226e-05 	0 -0.0157608 	8.88026e-05 	-4.00051e-25 -0.015721 	0.000163323 	-1.91343e-24 -0.0154679 	0.000220185 	-3.43391e-24 -0.0151441 	0.00027059 	-4.96037e-24 -0.0154685 	0.000263726 	1.9426e-22 -0.0156508 	0.000281358 	3.27421e-22 -0.0155506 	0.000350043 	3.23481e-22 -0.0153171 	0.000424666 	1.93417e-22 -0.015022 	0.000502982 	-6.22265e-24 -0.0153238 	0.000468193 	3.82612e-23 -0.0154148 	0.000477125 	6.12652e-23 -0.0152653 	0.000540216 	5.794e-23 -0.0150612 	0.000623077 	3.34424e-23 -0.014806 	0.000726785 	-1.30819e-23 -0.0150743 	0.00066894 	-9.59836e-24 -0.0150445 	0.000684636 	-2.632e-23 -0.0148596 	0.000743281 	-5.46394e-23 -0.014676 	0.000819643 	-8.39871e-23 -0.0144685 	0.000945547 	-1.16102e-22 -0.0146957 	0.000870136 	-8.76638e-23 -0.0145256 	0.000910158 	-8.35047e-23 -0.01432 	0.00096623 	-8.26328e-23 -0.0141308 	0.00102408 	-8.20328e-23 -0.0139763 	0.00116228 	-1.07792e-22 -0.0140747 	0.00110494 	-1.90377e-22 -0.013847 	0.00115863 	-1.53001e-22 -0.0136349 	0.00121442 	-1.15048e-22 -0.0134392 	0.0012724 	-7.64949e-23 -0.0133029 	0.00138001 	1.07478e-23 -0.0132564 	0.00136808 	-4.64991e-23 -0.0130716 	0.00141327 	-3.31136e-23 -0.0128974 	0.0014602 	-1.90557e-23 -0.0127342 	0.00150894 	-4.30134e-24 -0.0126179 	0.00154768 	7.54556e-24 -0.0125813 	0.00156152 	1.17939e-23 -0.0125454 	0.0015755 	1.60946e-23 -0.0125104 	0.00158961 	2.04482e-23 -0.0124762 	0.00160387 	2.4855e-23 -0.0124056 	0.00164934 	9.15394e-24 -0.0121675 	0.00167737 	6.79556e-24 -0.0119644 	0.00173768 	7.71354e-24 -0.0117773 	0.00180127 	8.60085e-24 -0.011607 	0.00186829 	9.45616e-24 -0.01125 	0.00213226 	5.12517e-23 -0.0109003 	0.0020113 	3.79491e-22 -0.010712 	0.00206483 	4.65802e-22 -0.0105501 	0.00213452 	5.37848e-22 -0.0102869 	0.00233709 	4.37801e-22 -0.00995364 	0.00267326 	1.80659e-22 -0.00964711 	0.00258111 	4.4591e-22 -0.00933898 	0.00248829 	7.11143e-22 -0.00902669 	0.00258947 	7.25268e-22 -0.00875968 	0.00289904 	4.92169e-22 -0.00853964 	0.00323729 	2.60246e-22 -0.00831644 	0.00318771 	4.63741e-22 -0.00803493 	0.00324589 	4.99353e-22 -0.00773735 	0.00337957 	4.32572e-22 -0.00747337 	0.00353275 	3.62434e-22 -0.00732133 	0.00364875 	3.13286e-22 -0.00727378 	0.00368836 	2.99404e-22 -0.00722769 	0.00372892 	2.85378e-22 -0.00718308 	0.00377045 	2.71206e-22 -0.00712502 	0.00382386 	2.69596e-22 -0.00705918 	0.00388613 	2.74216e-22 -0.00665585 	0.00395259 	1.8207e-22 -0.00638933 	0.00413113 	9.83769e-23 -0.00615252 	0.0043408 	1.9195e-23 -0.00588343 	0.00462352 	2.60797e-23 -0.00560577 	0.00502501 	3.21302e-23 -0.00554417 	0.00506643 	1.85355e-23 -0.00548569 	0.00511077 	4.93419e-24 -0.00542942 	0.00515905 	3.01813e-23 -0.00537583 	0.00521091 	7.75487e-23 -0.00533064 	0.00526016 	1.20082e-22 -0.00502417 	0.00545084 	1.20918e-22 -0.00475059 	0.00568097 	1.15806e-22 -0.00451694 	0.005919 	1.04701e-22 -0.00432154 	0.00615912 	8.80861e-23 -0.00405469 	0.00659605 	5.34675e-23 -0.00403795 	0.00662411 	8.85692e-23 -0.00402161 	0.00665269 	1.23369e-22 -0.00400564 	0.00668178 	1.57867e-22 -0.00400591 	0.00670323 	8.42243e-23 -0.00400802 	0.00672353 	3.98615e-25 -0.00362283 	0.00689346 	-6.77101e-22 -0.00341104 	0.00725058 	-1.1196e-21 -0.00325882 	0.00766558 	-1.49919e-21 -0.003349 	0.00796095 	-1.18819e-21 -0.00342295 	0.00819817 	-9.42642e-22 -0.00299786 	0.00855712 	-6.19714e-22 -0.0027333 	0.00886803 	-3.63528e-22 -0.00264058 	0.00906961 	-1.97202e-22 -0.0025575 	0.00929682 	-2.59697e-23 -0.00268752 	0.0096561 	1.75966e-23 -0.00252188 	0.00989947 	1.43256e-24 -0.00247353 	0.0100068 	0 -0.00243794 	0.0101051 	0 -0.0024039 	0.0102082 	0 -0.00235403 	0.0103733 	0 -0.00231151 	0.0105235 	0 -0.0022717 	0.0106826 	0 -0.0022345 	0.0108503 	0 -0.00219982 	0.0110263 	0 -0.00226266 	0.010974 	0 -0.00201677 	0.01107 	0 -0.00194412 	0.0114149 	0 -0.00188053 	0.0117938 	0 -0.00189022 	0.0120135 	0 -0.00205233 	0.0117899 	0 -0.00173301 	0.01194 	0 -0.00148593 	0.0122322 	0 -0.00143918 	0.0127507 	0 -0.00162986 	0.0125268 	0 -0.00181826 	0.0121894 	0 -0.00147895 	0.0124695 	0 -0.00115794 	0.0128826 	0 -0.0011262 	0.0129826 	0 -0.00135815 	0.0126238 	0 -0.00157016 	0.0121651 	0 -0.00121557 	0.012591 	0 -0.000882114 	0.0131921 	0 -0.000839517 	0.0128217 	0 -0.0010928 	0.0123737 	0 -0.00132438 	0.0117913 	0 -0.000959554 	0.0123748 	0 -0.000719067 	0.0127229 	0 -0.000694316 	0.0122849 	0 -0.000835649 	0.0117507 	0 -0.00108263 	0.0110483 	0 -0.000712892 	0.0117968 	0 -0.000576756 	0.0117969 	0 -0.000555108 	0.0113542 	0 -0.000599562 	0.0108369 	0 -0.000857274 	0.0100251 	0 -0.000488082 	0.0109413 	0 -0.000447488 	0.0105929 	0 -0.000428979 	0.0101548 	0 -0.00041047 	0.00971665 	0 -0.000657725 	0.00882293 	0 -0.00034904 	0.00958319 	0 -0.00033356 	0.00915817 	0 -0.00031808 	0.00873315 	0 -0.0003026 	0.00830814 	0 -0.000481849 	0.00741992 	0 -0.000247983 	0.00790315 	0 -0.000235255 	0.00749753 	0 -0.000222527 	0.0070919 	0 -0.0002098 	0.00668627 	0 -0.000332433 	0.00586361 	2.89816e-37 -0.000164925 	0.00607106 	0 -0.000154497 	0.00568716 	0 -0.000144068 	0.00530326 	0 -0.000133639 	0.00491936 	0 -0.000210299 	0.00420792 	2.92459e-40 -9.92995e-05 	0.00414456 	0 -9.05281e-05 	0.00377846 	0 -8.17567e-05 	0.00341236 	0 -7.29853e-05 	0.00304626 	0 -0.000111781 	0.00247573 	-1.04413e-37 -5.0835e-05 	0.00230137 	0 -4.46127e-05 	0.00201967 	0 -3.83904e-05 	0.00173798 	0 -3.21682e-05 	0.00145629 	0 -3.05327e-05 	0.000712726 	0 -1.46362e-05 	0.000661449 	0 -1.2745e-05 	0.000575978 	0 -1.08537e-05 	0.000490507 	0 -8.96244e-06 	0.000405036 	0 0 	0 	0
-0.0295431 	4.13546e-05 	0 -0.0297639 	0.000178486 	0 -0.0298723 	0.000285991 	-7.0859e-25 -0.0298504 	0.000360802 	-2.19904e-24 -0.0296635 	0.000487902 	-1.81255e-23 -0.0293467 	0.000659407 	-4.62634e-23 -0.0294783 	0.000735927 	-2.28873e-22 -0.029537 	0.000810112 	-3.4152e-22 -0.0294791 	0.00088053 	-3.47507e-22 -0.0291998 	0.00104245 	-2.35537e-22 -0.0288196 	0.00125482 	-6.04809e-23 -0.0288633 	0.00127624 	-7.33913e-23 -0.02888 	0.00130754 	-8.43236e-23 -0.0287918 	0.0013746 	-8.79592e-23 -0.0283979 	0.00159354 	-5.81124e-23 -0.0279784 	0.00184329 	-2.22381e-23 -0.0279422 	0.00181811 	-3.97296e-23 -0.0279029 	0.00179259 	-5.72204e-23 -0.0277488 	0.00187822 	-7.95963e-23 -0.0272758 	0.00215582 	-8.14004e-23 -0.0268418 	0.0024394 	-8.28608e-23 -0.0267381 	0.00237851 	-2.66262e-22 -0.0266277 	0.00231661 	-4.49753e-22 -0.0263236 	0.00243737 	-4.34845e-22 -0.0258572 	0.00274331 	-2.21854e-22 -0.0254328 	0.0030573 	-8.30869e-24 -0.0252767 	0.00297332 	1.5159e-22 -0.0251125 	0.00288775 	3.11422e-22 -0.0245963 	0.00305368 	3.24449e-22 -0.0241545 	0.00336625 	2.37994e-22 -0.0237612 	0.00370722 	1.38978e-22 -0.023569 	0.00361363 	2.76576e-22 -0.0231819 	0.00367489 	3.12368e-22 -0.0226766 	0.00385047 	2.76233e-22 -0.0221998 	0.00403567 	2.389e-22 -0.0218543 	0.00439895 	9.2217e-23 -0.0216467 	0.0043617 	8.4395e-23 -0.021249 	0.00450569 	1.15073e-22 -0.0208699 	0.00465705 	1.46264e-22 -0.0205105 	0.00481609 	1.77988e-22 -0.0202635 	0.00493783 	2.01508e-22 -0.0201671 	0.00499182 	2.03369e-22 -0.0200727 	0.00504662 	2.05166e-22 -0.0199804 	0.00510225 	2.06899e-22 -0.0198901 	0.00515872 	2.08566e-22 -0.0197354 	0.00526362 	2.16716e-22 -0.0192324 	0.00541353 	1.96499e-22 -0.0188118 	0.00562802 	2.00742e-22 -0.0184228 	0.00585775 	2.02609e-22 -0.0179901 	0.00616102 	2.21878e-22 -0.0174165 	0.00662365 	2.81354e-22 -0.0169285 	0.00674663 	1.59657e-22 -0.016471 	0.00688805 	3.711e-23 -0.0159136 	0.00714921 	0 -0.0154625 	0.00758292 	4.00048e-23 -0.0150342 	0.00809178 	8.08726e-23 -0.0148905 	0.00816281 	3.46465e-23 -0.0147381 	0.00824735 	0 -0.0145507 	0.00836568 	0 -0.0143708 	0.00848938 	0 -0.0142258 	0.00859811 	0 -0.013899 	0.00885621 	0 -0.0135957 	0.00913358 	0 -0.0133166 	0.00943051 	0 -0.0129765 	0.00976149 	0 -0.0126017 	0.0101767 	0 -0.0122515 	0.0104388 	0 -0.0119347 	0.0107312 	0 -0.0116037 	0.0110343 	0 -0.011294 	0.011363 	0 -0.0110987 	0.0116206 	0 -0.0108773 	0.0118901 	0 -0.0106699 	0.012174 	0 -0.0104597 	0.0124434 	-1.82279e-23 -0.0102498 	0.0127035 	-5.09687e-23 -0.0100041 	0.0130453 	-9.18281e-23 -0.00975313 	0.0133442 	-9.80978e-23 -0.00952444 	0.0136686 	-1.05462e-22 -0.00932284 	0.0139997 	-1.36106e-22 -0.00916843 	0.0142604 	-2.83019e-22 -0.00905069 	0.0144967 	-4.07967e-22 -0.00853252 	0.0151013 	-6.30966e-22 -0.00807462 	0.015762 	-8.19339e-22 -0.00774845 	0.0162356 	-5.26151e-22 -0.00745732 	0.0167583 	-2.37978e-22 -0.00725845 	0.0174565 	1.41355e-22 -0.00719045 	0.017606 	2.38809e-22 -0.00713371 	0.0177263 	2.68049e-22 -0.00708679 	0.0178208 	2.37143e-22 -0.00704076 	0.0179166 	2.06575e-22 -0.00698955 	0.0180268 	1.72288e-22 -0.0067491 	0.0185187 	1.57561e-22 -0.00653304 	0.0190516 	1.44263e-22 -0.00633995 	0.0196228 	1.32312e-22 -0.00626711 	0.020092 	1.34697e-22 -0.00637897 	0.0203149 	1.59907e-22 -0.00581383 	0.0209471 	1.00468e-22 -0.00528269 	0.0216673 	4.21028e-23 -0.00519311 	0.0224256 	1.71272e-22 -0.00541531 	0.0227855 	3.57737e-22 -0.00561516 	0.023104 	5.29949e-22 -0.00503731 	0.0239803 	2.34555e-22 -0.00457466 	0.0248135 	0 -0.004471 	0.0251238 	0 -0.00457415 	0.0254914 	2.91745e-25 -0.00484161 	0.0258663 	8.17072e-25 -0.00425656 	0.0270054 	3.16047e-26 -0.00413524 	0.027388 	0 -0.00403839 	0.0277626 	0 -0.00394671 	0.0281616 	0 -0.00407787 	0.0285626 	-1.2218e-22 -0.00381807 	0.029203 	0 -0.00375589 	0.0294583 	0 -0.00369575 	0.0297245 	0 -0.0036376 	0.0300014 	0 -0.00355081 	0.030445 	0 -0.00352665 	0.0305832 	0 -0.00350288 	0.0307235 	0 -0.00347947 	0.0308659 	0 -0.00345644 	0.0310102 	0 -0.00347846 	0.0309696 	0 -0.00333148 	0.0314267 	0 -0.00324172 	0.0318941 	0 -0.00315638 	0.0323889 	0 -0.0030753 	0.0329101 	0 -0.00319146 	0.0325689 	0 -0.00288901 	0.0332417 	0 -0.00280261 	0.0337641 	0 -0.00272025 	0.0343149 	0 -0.00265076 	0.0348477 	0 -0.00289473 	0.0338515 	0 -0.00252554 	0.0347677 	0 -0.00238471 	0.0354168 	0 -0.00230487 	0.0360133 	0 -0.00234948 	0.0359807 	0 -0.00259652 	0.0348305 	0 -0.00223318 	0.0359119 	0 -0.00199561 	0.0368353 	0 -0.00191886 	0.0374659 	0 -0.00206207 	0.0368487 	0 -0.00230869 	0.0355512 	0 -0.00195602 	0.0367907 	0 -0.00164695 	0.0380502 	7.59751e-38 -0.00157545 	0.0387031 	6.46185e-37 -0.0018008 	0.0375085 	1.21799e-36 -0.00204512 	0.0360728 	1.78294e-36 -0.00170698 	0.0374598 	1.15388e-36 -0.00137625 	0.0389816 	5.3109e-37 -0.00132812 	0.0394491 	7.81378e-40 -0.0015771 	0.0379821 	1.66141e-39 -0.00182006 	0.0364179 	2.53112e-39 -0.00149894 	0.0379399 	1.57591e-39 -0.00118452 	0.0395996 	6.2978e-40 -0.00115361 	0.0398709 	-3.94719e-37 -0.001406 	0.0382901 	-9.72401e-37 -0.00165272 	0.0366043 	-1.54378e-36 -0.00134938 	0.0382506 	-9.22536e-37 -0.00105221 	0.0400368 	-3.06922e-37 -0.00104057 	0.0401463 	0 -0.00130818 	0.0384553 	0 -0.00156991 	0.0366466 	0 -0.00128337 	0.0384141 	0 -0.00100281 	0.0403245 	0 -0.00100763 	0.0402788 	0 -0.00131119 	0.038469 	0 -0.00160768 	0.0365174 	0 -0.001336 	0.0384206 	0 -0.00107078 	0.0404733 	0 -0.001078 	0.0402282 	0 -0.00145005 	0.0382644 	0 -0.00181173 	0.0361144 	0 -0.00155464 	0.0382049 	0 -0.00130562 	0.0404593 	0 -0.00128272 	0.0398356 	0 -0.00175767 	0.0376602 	0 -0.00222571 	0.0351882 	0 -0.00199065 	0.0375947 	0 -0.00180268 	0.0394121 	0 -0.00175637 	0.0383997 	0 -0.00221397 	0.0361369 	0 -0.00283291 	0.0330964 	0 -0.00264772 	0.0361072 	0 -0.002503 	0.036851 	0 -0.00238723 	0.0351466 	0 -0.00261399 	0.0326837 	0 -0.0034068 	0.0286309 	0 -0.0033433 	0.0328625 	0 -0.00307537 	0.0307723 	0 -0.00277749 	0.0277916 	0 -0.0024796 	0.024811 	0 -0.00315792 	0.0194267 	0 -0.00305917 	0.0220355 	0 -0.00240372 	0.0173142 	0 -0.00174827 	0.0125929 	0 -0.00109282 	0.00787164 	0 -0.000123269 	0.000592177 	0 -0.000129941 	0.000754193 	0 -0.000102876 	0.000597104 	0 -7.58113e-05 	0.000440016 	0 -4.87462e-05 	0.000282928 	0 0 	0 	0
-0.0429379 	4.53893e-05 	0 -0.0429068 	0.000256709 	-2.05498e-23 -0.0428247 	0.000489078 	-4.6929e-23 -0.0427633 	0.000721958 	-7.34494e-23 -0.0427225 	0.000955343 	-1.00111e-22 -0.042658 	0.00117929 	-1.27166e-22 -0.0425109 	0.00137437 	-1.56805e-22 -0.0423261 	0.00159246 	-1.57567e-22 -0.042161 	0.00181206 	-1.57525e-22 -0.042016 	0.0020332 	-1.56672e-22 -0.0419665 	0.00212137 	-1.56009e-22 -0.0419535 	0.0021486 	-1.56339e-22 -0.0419408 	0.00217585 	-1.56665e-22 -0.0419284 	0.00220312 	-1.56986e-22 -0.0419164 	0.00223042 	-1.57302e-22 -0.0418951 	0.00226241 	-1.58437e-22 -0.0416186 	0.00246933 	-1.30022e-22 -0.0413578 	0.00267779 	-1.01594e-22 -0.0411173 	0.00288891 	-7.29717e-23 -0.0408976 	0.00310274 	-4.41533e-23 -0.0405856 	0.00337823 	-2.06641e-23 -0.0402728 	0.00357392 	-8.63288e-24 -0.0399508 	0.00377686 	-2.12579e-25 -0.0396493 	0.0039835 	8.39082e-24 -0.0393687 	0.00419391 	1.71811e-23 -0.0388463 	0.00455386 	1.84882e-23 -0.0384865 	0.00470997 	2.04802e-22 -0.0381267 	0.00491412 	2.47332e-22 -0.037788 	0.00512317 	2.91114e-22 -0.0373712 	0.00539628 	2.67533e-22 -0.0367313 	0.0058253 	7.43951e-23 -0.0363135 	0.00595806 	4.74787e-23 -0.0359195 	0.00611423 	2.9873e-23 -0.0355681 	0.00633396 	4.18051e-23 -0.0349166 	0.00676492 	7.40823e-23 -0.0342907 	0.00722218 	1.06621e-22 -0.0338473 	0.00735315 	5.80498e-23 -0.0334217 	0.00749086 	9.27846e-24 -0.0327631 	0.007806 	4.88588e-26 -0.0321514 	0.00827122 	1.6536e-23 -0.0315729 	0.00876487 	3.28694e-23 -0.031137 	0.00891343 	5.05324e-24 -0.0304911 	0.00923599 	0 -0.029831 	0.00961401 	0 -0.0292132 	0.0100139 	0 -0.0286556 	0.0104248 	0 -0.0286485 	0.0104313 	0 -0.0286414 	0.0104378 	0 -0.0286342 	0.0104442 	0 -0.0286258 	0.0104514 	0 -0.0286148 	0.01046 	0 -0.0279551 	0.0108557 	0 -0.0273417 	0.0112814 	0 -0.0267731 	0.011735 	0 -0.026152 	0.0122657 	0 -0.0253716 	0.0129589 	0 -0.0247353 	0.0133517 	0 -0.0241311 	0.0137872 	0 -0.023389 	0.0143336 	0 -0.0227138 	0.014928 	0 -0.0220177 	0.0156685 	0 -0.0220173 	0.0156688 	0 -0.022017 	0.0156692 	0 -0.0220166 	0.0156695 	0 -0.0220162 	0.0156698 	0 -0.0220158 	0.0156702 	0 -0.0212535 	0.0162969 	0 -0.0205591 	0.0169871 	0 -0.0199203 	0.0177365 	-1.11908e-27 -0.0192087 	0.0185031 	-1.31815e-26 -0.0183743 	0.0195992 	-2.90744e-26 -0.0182819 	0.0197225 	-2.91463e-26 -0.0181915 	0.0198479 	-2.92308e-26 -0.0180977 	0.0199656 	-6.09343e-24 -0.0179981 	0.020072 	-2.05657e-23 -0.0179056 	0.0201748 	-3.42979e-23 -0.0171279 	0.0210127 	-2.94712e-23 -0.0164294 	0.0219406 	-2.12223e-23 -0.0157762 	0.0228007 	-5.0624e-23 -0.0152054 	0.0236694 	-1.12398e-22 -0.0148074 	0.0245573 	-1.93566e-22 -0.0147138 	0.024753 	-2.58571e-22 -0.0146218 	0.0249449 	-3.08693e-22 -0.0145288 	0.0250937 	-2.45694e-22 -0.0144375 	0.0252445 	-1.83119e-22 -0.0143386 	0.0254129 	-1.14541e-22 -0.0138883 	0.0261316 	2.44359e-22 -0.0134804 	0.0269035 	5.91123e-22 -0.0131132 	0.0277256 	9.26114e-22 -0.0128727 	0.0283166 	6.38031e-22 -0.0127053 	0.028796 	2.25648e-22 -0.0120597 	0.0298659 	-1.24698e-22 -0.011468 	0.0310192 	-4.79781e-22 -0.0110933 	0.0317127 	-8.15579e-23 -0.01086 	0.0324792 	6.6644e-22 -0.0107665 	0.0332242 	1.63393e-21 -0.0104211 	0.0340696 	2.28076e-21 -0.0101855 	0.0346384 	2.04343e-21 -0.00998784 	0.0351396 	1.55813e-21 -0.0097998 	0.0356586 	1.083e-21 -0.00954002 	0.0364378 	4.06876e-22 -0.00945023 	0.0367376 	3.04912e-22 -0.00936294 	0.0370422 	2.03207e-22 -0.0092781 	0.0373517 	1.01757e-22 -0.00919896 	0.0376598 	2.85398e-24 -0.0092634 	0.037713 	3.02317e-24 -0.00875482 	0.0386365 	-8.50303e-23 -0.00848429 	0.0396209 	-2.95163e-22 -0.00823565 	0.0406522 	-5.09219e-22 -0.00813931 	0.0414591 	-7.26674e-22 -0.00837765 	0.0416124 	-9.38846e-22 -0.00770568 	0.0427713 	-6.15095e-22 -0.0071126 	0.0440112 	-1.57491e-22 -0.0069342 	0.0451619 	1.2458e-21 -0.00722844 	0.0453238 	2.36532e-21 -0.00750602 	0.0454515 	3.44678e-21 -0.00682954 	0.0468381 	1.91837e-21 -0.00617991 	0.0483276 	4.10899e-22 -0.00602066 	0.0489549 	6.59762e-25 -0.00634408 	0.0490786 	3.63084e-24 -0.00665155 	0.0491631 	6.52133e-24 -0.00597556 	0.0507698 	2.69808e-24 -0.00547601 	0.0520822 	0 -0.00536882 	0.0524753 	0 -0.00550055 	0.0526855 	-3.00109e-21 -0.00582737 	0.0527066 	-8.49348e-21 -0.00515741 	0.0545186 	-1.61647e-21 -0.0049201 	0.0552602 	0 -0.00481644 	0.0556784 	0 -0.00471543 	0.0561174 	0 -0.00505017 	0.0560558 	-1.07686e-23 -0.00448412 	0.0577673 	0 -0.00438267 	0.0581809 	0 -0.00428356 	0.0586157 	0 -0.00418677 	0.0590712 	0 -0.00433307 	0.0591679 	2.53264e-21 -0.00397243 	0.0603927 	3.2945e-37 -0.00387842 	0.0608152 	9.64246e-37 -0.00378639 	0.0612581 	1.59793e-36 -0.0036963 	0.061721 	2.23053e-36 -0.00369566 	0.0620305 	2.97656e-36 -0.00354379 	0.0626366 	3.23785e-36 -0.00348976 	0.0629114 	2.69342e-36 -0.00343641 	0.0631942 	2.15198e-36 -0.00338374 	0.063485 	1.61349e-36 -0.00331366 	0.0638874 	8.91801e-37 -0.00329034 	0.0640287 	7.05119e-37 -0.00326714 	0.0641716 	5.18517e-37 -0.00324409 	0.0643161 	3.31995e-37 -0.00322117 	0.0644622 	1.45553e-37 -0.00322114 	0.0644524 	4.47958e-39 -0.00313653 	0.0649502 	-5.15996e-37 -0.00307404 	0.0653791 	-1.08269e-36 -0.00301273 	0.0658231 	-1.65018e-36 -0.00295257 	0.0662821 	-2.21844e-36 -0.00298345 	0.0660773 	-2.78679e-36 -0.0028629 	0.066888 	-2.16555e-36 -0.00283306 	0.0673241 	-1.54564e-36 -0.00280388 	0.0677694 	-9.26147e-37 -0.00277535 	0.0682238 	-3.07051e-37 -0.00289128 	0.0674913 	0 -0.00274391 	0.0686492 	0 -0.00276748 	0.0691099 	0 -0.00279097 	0.0695695 	0 -0.0028144 	0.0700281 	0 -0.0030259 	0.0687314 	0 -0.00284472 	0.0702905 	0 -0.00295453 	0.0708098 	0 -0.00306295 	0.0713108 	0 -0.00317001 	0.0717939 	0 -0.00350182 	0.0698042 	0 -0.00324979 	0.0718792 	0 -0.00349701 	0.0725162 	0 -0.00374002 	0.0731062 	0 -0.00400784 	0.0732511 	0 -0.00446721 	0.070626 	0 -0.00423215 	0.0730325 	0 -0.00450447 	0.0742945 	0 -0.00495548 	0.0750553 	0 -0.00546653 	0.0741586 	0 -0.00606519 	0.0708587 	0 -0.00588001 	0.0738694 	0 -0.00603337 	0.0762767 	0 -0.00679264 	0.0773546 	0 -0.00755811 	0.0742648 	0 -0.00829406 	0.0697036 	0 -0.00823056 	0.0739352 	0 -0.00818784 	0.0783455 	0 -0.00904821 	0.0785634 	0 -0.00987948 	0.0722073 	0 -0.0106151 	0.0653013 	0 -0.0108231 	0.072056 	0 -0.0110847 	0.0791509 	0 -0.0105195 	0.0754586 	0 -0.0109898 	0.0651807 	0 -0.0112635 	0.0541092 	0 -0.0119858 	0.0662715 	0 -0.0114523 	0.0664701 	0 -0.00994493 	0.0577213 	0 -0.00843759 	0.0489726 	0 -0.00714021 	0.0309907 	0 -0.00783953 	0.0458461 	0 -0.0063682 	0.0372417 	0 -0.00489687 	0.0286372 	0 -0.00342553 	0.0200327 	0 0 	0 	0