# vtk DataFile Version 2.0
track0
ASCII
DATASET POLYDATA
POINTS 41164 float
0.05 8.57988e-20 2.57396e-18
0.05 0.00217391 -1.05592e-17
0.05 0.00217391 -1.05592e-17
0.05 0.00217391 -1.05592e-17
0.05 0.00217391 -1.05592e-17
0.05 0.00217391 -1.05592e-17
0.05 0.00217391 -1.38778e-17
0.0493333 0.00217506 -1.01308e-17
0.0486667 0.00217725 -8.53484e-18
0.048 0.00218101 -1.06273e-17
0.0473334 0.00218795 -4.33755e-18
0.0466667 0.00219745 -1.38778e-17
0.046 0.00220937 -1.08247e-17
0.0453333 0.00222074 -9.9226e-18
0.0446667 0.00223273 -1.40106e-17
0.0440001 0.00224774 -1.83337e-17
0.0433333 0.00226623 -2.63678e-17
0.0426667 0.00228856 -2.47025e-17
0.0419999 0.00230893 -2.10253e-17
0.0413332 0.00232957 -2.26644e-17
0.0406666 0.00235316 -1.91844e-17
0.04 0.00238074 -2.498e-17
0.0393333 0.00241347 -1.98452e-17
0.0386665 0.00244306 -2.03307e-17
0.0379997 0.0024734 -1.72532e-17
0.0373331 0.00250675 -1.88024e-17
0.0366667 0.00254396 -1.80411e-17
0.036 0.00258753 -1.77636e-17
0.0353331 0.00262702 -1.85937e-17
0.0346663 0.00266879 -1.62194e-17
0.0339997 0.00271377 -2.04355e-17
0.0333333 0.00276206 -2.498e-17
0.0326667 0.00281749 -2.52576e-17
0.0319998 0.00286985 -2.38e-17
0.0313331 0.00292562 -3.31534e-17
0.0306668 0.00298496 -2.41028e-17
0.03 0.00304809 -2.498e-17
0.02945 0.00310513 -1.99007e-17
0.0289 0.00316189 -2.3842e-17
0.0283502 0.00322132 -2.23844e-17
0.0278008 0.00328352 -1.48476e-17
0.0273804 0.00333333 -2.18094e-17
0.0272376 0.00335084 -1.52271e-17
0.0270949 0.00336855 -1.97469e-17
0.0269522 0.00338647 -2.42667e-17
0.0268096 0.00340459 -2.73986e-17
0.0266667 0.00342296 -2.61439e-17
0.026 0.00351158 -2.3147e-17
0.0253338 0.00360342 -2.29176e-17
0.0246682 0.00370007 -2.82439e-17
0.0240034 0.00380173 -2.26265e-17
0.0233333 0.00390958 -2.31641e-17
0.0226667 0.00403592 -3.23951e-17
0.0219994 0.00415903 -2.77429e-17
0.0213331 0.00428744 -2.68514e-17
0.0206681 0.00442198 -2.3602e-17
0.02 0.00457374 -1.62105e-17
0.0193333 0.00475277 -1.50503e-17
0.0186665 0.00493116 -1.83073e-17
0.0179995 0.00510885 -1.98509e-17
0.0173359 0.00529917 -1.52121e-17
0.0166667 0.00552065 -1.249e-17
0.016062 0.00574985 -1.65306e-17
0.0154582 0.00598128 -1.37741e-17
0.0148586 0.00622348 -1.65808e-17
0.014266 0.00648231 -1.43593e-17
0.013876 0.00666667 -2.4496e-17
0.0137675 0.00672076 -2.5703e-17
0.0136593 0.0067756 -2.41351e-17
0.0135515 0.0068312 -2.53434e-17
0.0134442 0.00688756 -2.84396e-17
0.0133333 0.00694705 -3.23858e-17
0.0126667 0.00731402 -2.25886e-17
0.0120123 0.00770258 -1.83785e-17
0.0113733 0.00811577 -1.89244e-17
0.0107515 0.00855449 -1.52335e-17
0.01 0.00914507 -1.80411e-17
0.00980927 0.00931606 -1.61769e-17
0.0096202 0.00948887 -1.43168e-17
0.0094328 0.00966349 -1.80702e-17
0.00924712 0.00983995 -2.06157e-17
0.00908204 0.01 -2.498e-17
0.00859896 0.0104768 -2.51768e-17
0.00813901 0.0109759 -2.73736e-17
0.00770368 0.0114967 -2.87248e-17
0.00729199 0.0120363 -2.76773e-17
0.00666667 0.0129278 -2.35922e-17
0.00661683 0.0130089 -2.64508e-17
0.00656729 0.0130902 -2.51455e-17
0.00651806 0.0131717 -2.52275e-17
0.00646913 0.0132533 -2.4651e-17
0.00642133 0.0133333 -2.63678e-17
0.00602405 0.014 -2.33147e-17
0.0056631 0.014687 -2.58466e-17
0.00533281 0.0153893 -2.41487e-17
0.00502926 0.0161035 -3.1629e-17
0.00479243 0.0166667 -3.31313e-17
0.00451416 0.0173333 -2.65406e-17
0.00427535 0.0180151 -2.78577e-17
0.00406263 0.0187055 -2.28008e-17
0.00386075 0.0193991 -2.86908e-17
0.0036955 0.02 -2.58232e-17
0.00362307 0.0202603 -1.95484e-17
0.0035564 0.0205221 -2.34412e-17
0.00349159 0.0207843 -2.11618e-17
0.00342826 0.021047 -1.57618e-17
0.00333333 0.0214503 -1.46647e-17
0.00324793 0.0218269 -7.08113e-18
0.00316512 0.0222041 -7.21903e-18
0.00308483 0.0225818 -8.74052e-18
0.00300695 0.0229601 -1.93131e-18
0.0029325 0.0233333 0
0.00279508 0.024 5.13478e-18
0.00267309 0.0246697 9.57069e-18
0.0025588 0.0253407 8.1798e-18
0.0024516 0.0260129 7.51189e-18
0.00234875 0.0266667 0
0.00223272 0.0273333 1.27676e-17
0.00213553 0.028003 7.50151e-18
0.00205389 0.0286748 1.34818e-17
0.00197796 0.0293472 5.03271e-18
0.00189302 0.03 -6.93889e-18
0.00179357 0.0306667 -1.11022e-18
0.00171417 0.031336 1.59148e-18
0.00165381 0.0320073 -1.47953e-19
0.00159553 0.0326789 -3.98393e-18
0.0015251 0.0333333 -7.77951e-18
0.00143904 0.034 -4.49099e-18
0.00137442 0.0346691 -8.96242e-19
0.00132953 0.0353398 -2.33747e-18
0.00128558 0.0360105 3.82381e-18
0.0012276 0.0366667 5.93537e-18
0.00115269 0.0373333 9.18261e-18
0.00110079 0.0380022 1.13197e-17
0.00106292 0.038672 8.80355e-18
0.00102504 0.0393418 7.8967e-18
0.00097819 0.04 7.39155e-18
0.000912822 0.0406667 1.99904e-17
0.000872364 0.0413353 1.77712e-17
0.000839628 0.0420044 1.43562e-17
0.000806892 0.0426734 1.55104e-17
0.000770333 0.0433333 1.25949e-17
0.000713272 0.044 1.61594e-17
0.000683397 0.0446684 1.5657e-17
0.000655124 0.0453369 1.1235e-17
0.000626851 0.0460055 1.4285e-17
0.000598887 0.0466667 5.94155e-18
0.000549124 0.0473333 8.002e-18
0.000524753 0.0480014 8.98169e-18
0.000500381 0.0486695 1.26241e-17
0.000476009 0.0493376 1.4981e-17
0.000451843 0.05 1.72887e-17
0.000408476 0.0506667 1.44812e-17
0.000387479 0.0513344 2.16998e-17
0.000366482 0.0520022 2.23396e-17
0.000345485 0.0526699 2.60849e-17
0.000324624 0.0533333 2.02761e-17
0.000286743 0.054 2.42249e-17
0.00026856 0.0546675 1.84279e-17
0.000250377 0.055335 1.60955e-17
0.000232194 0.0560025 1.35961e-17
0.000214101 0.0566667 1.62968e-17
0.00018069 0.0573333 1.88504e-17
0.000164647 0.0580006 1.44373e-17
0.000148604 0.058668 8.11636e-18
0.00013256 0.0593353 5.96423e-18
0.000116579 0.06 1.36836e-17
9.32634e-05 0.0605147 1.0487e-18
8.18402e-05 0.0610297 8.84624e-19
7.0417e-05 0.0615448 -3.20284e-19
5.89938e-05 0.0620598 -1.69555e-18
3.07488e-05 0.0633333 -6.9901e-18
2.4599e-05 0.0634763 -6.2213e-18
2.14188e-05 0.0636194 -1.10084e-17
1.82386e-05 0.0637625 -1.11117e-17
1.50584e-05 0.0639056 -4.62312e-18
0 0.0645832 -2.08187e-18
0.05 0.00434783 5.94331e-18
0.0493333 0.00434878 -3.03284e-19
0.0486667 0.0043528 -5.86109e-18
0.048 0.0043592 -3.95524e-18
0.0473334 0.00436727 -5.63353e-18
0.0466667 0.00437825 -1.00668e-17
0.046 0.00439325 -4.54067e-18
0.0453334 0.00440991 -1.79285e-18
0.0446668 0.0044282 -3.95436e-18
0.0440003 0.00444812 -9.74964e-18
0.0433333 0.00447194 -1.46198e-17
0.0426667 0.00450098 -1.16508e-17
0.042 0.00453046 -1.11075e-17
0.0413334 0.00456065 -1.2282e-17
0.0406669 0.00459248 -1.97558e-17
0.04 0.00462991 -2.54045e-17
0.0393333 0.00467384 -2.86002e-17
0.0386666 0.00471723 -3.04072e-17
0.0379999 0.00476006 -2.90744e-17
0.0373333 0.00480519 -2.78024e-17
0.0366667 0.00485788 -1.97436e-17
0.036 0.00491847 -2.85022e-17
0.0353332 0.00497779 -3.28896e-17
0.0346663 0.00503581 -3.50197e-17
0.0339998 0.00509753 -3.17029e-17
0.0333333 0.00516824 -4.30211e-17
0.0326667 0.00524838 -3.71925e-17
0.0319998 0.00532683 -3.69144e-17
0.0313327 0.00540354 -3.83378e-17
0.0306664 0.00548627 -3.93207e-17
0.03 0.00557914 -4.30211e-17
0.0293333 0.00568315 -3.64986e-17
0.0286664 0.00578541 -4.2188e-17
0.028 0.00589105 -5.18068e-17
0.0273348 0.00600401 -4.96691e-17
0.0266667 0.00612546 -5.41234e-17
0.0261289 0.0062337 -5.60034e-17
0.0255912 0.00634205 -5.71896e-17
0.0250546 0.00645583 -6.00256e-17
0.0245192 0.00657529 -6.61785e-17
0.02413 0.00666667 -6.37768e-17
0.0239707 0.00670549 -6.48992e-17
0.0238115 0.00674489 -6.32463e-17
0.0236524 0.00678488 -6.15937e-17
0.0234935 0.00682546 -6.54924e-17
0.0233333 0.00686701 -6.55592e-17
0.0226667 0.00704482 -7.27942e-17
0.0220025 0.00723177 -6.75545e-17
0.0213415 0.00742954 -7.54054e-17
0.020684 0.00763861 -7.68891e-17
0.02 0.00787286 -8.4417e-17
0.0193333 0.00812641 -8.20489e-17
0.0186708 0.00839048 -8.40926e-17
0.0180127 0.00866568 -8.41145e-17
0.0173621 0.00895799 -8.22253e-17
0.0166667 0.00929907 -8.46545e-17
0.0164062 0.00943926 -8.23127e-17
0.0161469 0.00958144 -7.54622e-17
0.0158888 0.00972588 -7.91957e-17
0.0156324 0.00987331 -7.18298e-17
0.0154179 0.01 -6.10623e-17
0.015001 0.010252 -6.56453e-17
0.0145902 0.0105138 -6.35023e-17
0.0141858 0.0107855 -6.8033e-17
0.0137883 0.011067 -6.49001e-17
0.0133333 0.0114093 -7.36441e-17
0.0128569 0.0117941 -7.8509e-17
0.0123908 0.0121913 -8.20608e-17
0.0119355 0.0126008 -8.40613e-17
0.0114917 0.0130229 -8.68507e-17
0.0111832 0.0133333 -8.19052e-17
0.0109465 0.0135811 -8.57857e-17
0.0107153 0.0138339 -7.79239e-17
0.0104895 0.0140916 -8.2819e-17
0.010269 0.014354 -8.61784e-17
0.01 0.0146875 -8.70831e-17
0.00969655 0.0150833 -7.96087e-17
0.00940229 0.0154861 -8.70377e-17
0.0091172 0.0158953 -8.66538e-17
0.00884078 0.0163105 -8.68874e-17
0.00861181 0.0166667 -9.15934e-17
0.00822278 0.0172899 -8.97011e-17
0.00786144 0.0179295 -9.29778e-17
0.00752656 0.0185834 -9.68667e-17
0.00721021 0.0192465 -8.72306e-17
0.00687502 0.02 -8.13585e-17
0.00683335 0.0201002 -8.97892e-17
0.00679232 0.0202007 -8.97337e-17
0.00675181 0.0203014 -8.88047e-17
0.00671171 0.0204022 -9.06516e-17
0.00666667 0.0205169 -8.4751e-17
0.00644838 0.0210802 -8.54256e-17
0.0062416 0.0216478 -8.95805e-17
0.0060457 0.0222193 -8.56886e-17
0.00585999 0.0227941 -8.4005e-17
0.00569181 0.0233333 -8.60423e-17
0.00548249 0.024 -8.64586e-17
0.00529562 0.0246733 -8.75799e-17
0.0051301 0.0253522 -8.82539e-17
0.00497244 0.0260329 -8.92253e-17
0.00482181 0.0266667 -8.87425e-17
0.00465977 0.0273333 -9.00147e-17
0.0045187 0.0280048 -9.18595e-17
0.00439431 0.0286795 -9.63331e-17
0.0042741 0.0293549 -9.94277e-17
0.00415831 0.03 -1.05457e-16
0.00403348 0.0306667 -1.05249e-16
0.00392783 0.0313366 -9.86842e-17
0.00382655 0.0320073 -9.56301e-17
0.0037289 0.0326785 -9.05028e-17
0.00363709 0.0333333 -8.0997e-17
0.00357634 0.0337586 -8.53918e-17
0.00352064 0.0341846 -8.42427e-17
0.0034663 0.0346107 -8.6912e-17
0.00341329 0.035037 -9.25657e-17
0.00333333 0.0356964 -9.29812e-17
0.0033107 0.0358905 -9.16311e-17
0.00328832 0.0360845 -9.58317e-17
0.00326619 0.0362786 -8.75419e-17
0.0032443 0.0364728 -8.89661e-17
0.00322268 0.0366667 -9.29812e-17
0.00314777 0.0373333 -9.13158e-17
0.00307701 0.0380005 -9.7284e-17
0.00300913 0.0386679 -9.76844e-17
[...]
POINT_DATA 41164
 FIELD attributes 1
U 3 41164 float
-6.41902e-19 	-1.67662e-21 	0
-0.015156 	2.60468e-05 	0 -0.015156 	2.60468e-05 	0 -0.015156 	2.60468e-05 	0 -0.015156 	2.60468e-05 	0 -0.015156 	2.60468e-05 	0 -0.015156 	2.60468e-05 	0 -0.0154889 	5.08924e-05 	0 -0.0157257 	8.88199e-05 	-4.05938e-25 -0.0156858 	0.000163131 	-1.94137e-24 -0.0154329 	0.000219882 	-3.48399e-24 -0.0151094 	0.000270212 	-5.03269e-24 -0.0154335 	0.000263306 	1.97045e-22 -0.0156157 	0.000280855 	3.32089e-22 -0.0155156 	0.000349346 	3.28073e-22 -0.0152823 	0.000423799 	1.9615e-22 -0.0149874 	0.000501958 	-6.37115e-24 -0.0152889 	0.000467213 	4.09932e-23 -0.01538 	0.000476103 	6.5867e-23 -0.0152308 	0.000539019 	6.31878e-23 -0.0150269 	0.00062167 	3.79775e-23 -0.0147717 	0.000725145 	-1.06862e-23 -0.0150399 	0.000667418 	-7.84068e-24 -0.0150103 	0.000683073 	-2.43196e-23 -0.0148258 	0.000741559 	-5.18816e-23 -0.0146424 	0.000817714 	-8.03013e-23 -0.0144349 	0.000943317 	-1.11005e-22 -0.014662 	0.000868083 	-8.38163e-23 -0.0144923 	0.000908015 	-8.03217e-23 -0.0142872 	0.000963939 	-8.00282e-23 -0.0140984 	0.00102163 	-7.9997e-23 -0.0139437 	0.00115948 	-1.05165e-22 -0.0140423 	0.00110231 	-1.87361e-22 -0.0138151 	0.00115585 	-1.50688e-22 -0.0136035 	0.0012115 	-1.1344e-22 -0.0134082 	0.00126934 	-7.55963e-23 -0.013272 	0.00137667 	1.06657e-23 -0.0132258 	0.00136477 	-4.61764e-23 -0.0130414 	0.00140984 	-3.28839e-23 -0.0128677 	0.00145665 	-1.89237e-23 -0.0127048 	0.00150526 	-4.27216e-24 -0.0125889 	0.00154391 	7.4929e-24 -0.0125522 	0.00155772 	1.17132e-23 -0.0125165 	0.00157166 	1.59857e-23 -0.0124815 	0.00158575 	2.03107e-23 -0.0124474 	0.00159997 	2.46885e-23 -0.0123769 	0.00164534 	9.09261e-24 -0.0121394 	0.0016733 	6.75399e-24 -0.0119367 	0.00173346 	7.6706e-24 -0.0117501 	0.0017969 	8.55671e-24 -0.0115802 	0.00186375 	9.41099e-24 -0.0112237 	0.00212702 	5.10036e-23 -0.0108751 	0.0020064 	3.77662e-22 -0.0106873 	0.00205982 	4.63523e-22 -0.0105257 	0.00212934 	5.35216e-22 -0.0102631 	0.00233137 	4.35701e-22 -0.00993022 	0.00266665 	1.79826e-22 -0.00962465 	0.00257478 	4.43971e-22 -0.00931746 	0.00248222 	7.08099e-22 -0.00900597 	0.00258318 	7.22185e-22 -0.00873926 	0.00289194 	4.90091e-22 -0.0085194 	0.00322931 	2.59171e-22 -0.0082968 	0.00317989 	4.61967e-22 -0.00801586 	0.00323798 	4.97451e-22 -0.00771879 	0.0033714 	4.30929e-22 -0.00745526 	0.00352429 	3.6106e-22 -0.00730351 	0.00364004 	3.12109e-22 -0.00725612 	0.0036795 	2.98304e-22 -0.00721019 	0.00371992 	2.84355e-22 -0.00716572 	0.00376129 	2.70261e-22 -0.00710785 	0.00381449 	2.68663e-22 -0.00704222 	0.00387651 	2.7326e-22 -0.00663996 	0.00394302 	1.81465e-22 -0.00637396 	0.00412118 	9.80791e-23 -0.00613761 	0.00433037 	1.91462e-23 -0.00586895 	0.00461239 	2.60072e-23 -0.00559166 	0.00501293 	3.20364e-23 -0.00553016 	0.00505433 	1.84821e-23 -0.00547179 	0.00509863 	4.9214e-24 -0.0054156 	0.00514686 	3.0074e-23 -0.00536209 	0.00519864 	7.72834e-23 -0.00531697 	0.00524781 	1.1967e-22 -0.00501121 	0.00543816 	1.2049e-22 -0.00473827 	0.00566786 	1.15381e-22 -0.00450517 	0.00590537 	1.04299e-22 -0.00431023 	0.00614493 	8.77277e-23 -0.00404394 	0.00658093 	5.32007e-23 -0.00402727 	0.00660891 	8.81112e-23 -0.00401099 	0.0066374 	1.22721e-22 -0.00399508 	0.0066664 	1.57033e-22 -0.00399534 	0.00668777 	8.38058e-23 -0.00399744 	0.00670799 	3.95954e-25 -0.00361356 	0.00687784 	-6.74134e-22 -0.00340236 	0.00723409 	-1.11482e-21 -0.00325036 	0.00764815 	-1.49338e-21 -0.0033403 	0.00794263 	-1.18352e-21 -0.00341406 	0.00817916 	-9.3884e-22 -0.00299018 	0.00853717 	-6.17269e-22 -0.00272609 	0.00884754 	-3.61902e-22 -0.00263366 	0.00904853 	-1.96136e-22 -0.00255084 	0.00927506 	-2.54853e-23 -0.00268113 	0.00963371 	1.73355e-23 -0.00251539 	0.00987718 	1.41056e-24 -0.00246705 	0.00998455 	0 -0.00243147 	0.010083 	0 -0.00239744 	0.0101861 	0 -0.00234755 	0.0103516 	0 -0.00230533 	0.010501 	0 -0.00226579 	0.0106592 	0 -0.00222883 	0.010826 	0 -0.00219437 	0.0110009 	0 -0.00225682 	0.010949 	0 -0.00201222 	0.0110454 	0 -0.00193981 	0.0113892 	0 -0.00187644 	0.0117669 	0 -0.00188573 	0.0119869 	0 -0.00204743 	0.0117638 	0 -0.00172906 	0.0119135 	0 -0.00148328 	0.0122053 	0 -0.00143671 	0.0127221 	0 -0.00162643 	0.0125001 	0 -0.00181436 	0.0121637 	0 -0.00147601 	0.0124429 	0 -0.0011559 	0.0128546 	0 -0.00112438 	0.0129562 	0 -0.00135578 	0.0125984 	0 -0.00156729 	0.0121411 	0 -0.00121364 	0.0125656 	0 -0.000881052 	0.0131647 	0 -0.000838582 	0.0127969 	0 -0.00109133 	0.0123502 	0 -0.00132242 	0.0117696 	0 -0.00095847 	0.0123511 	0 -0.000718103 	0.0126999 	0 -0.000693396 	0.0122629 	0 -0.000834943 	0.0117301 	0 -0.00108148 	0.0110297 	0 -0.000712518 	0.0117758 	0 -0.000576246 	0.0117773 	0 -0.000554622 	0.0113354 	0 -0.000599379 	0.0108189 	0 -0.000856727 	0.0100094 	0 -0.000488179 	0.0109229 	0 -0.000447297 	0.0105762 	0 -0.000428792 	0.0101387 	0 -0.000410287 	0.00970114 	0 -0.000657588 	0.00880972 	0 -0.000349077 	0.00956891 	0 -0.000333584 	0.00914421 	0 -0.000318091 	0.00871952 	0 -0.000302598 	0.00829482 	0 -0.000481938 	0.00740854 	0 -0.000248119 	0.00789068 	0 -0.000235365 	0.00748507 	0 -0.000222611 	0.00707947 	0 -0.000209857 	0.00667386 	0 -0.000332555 	0.00585273 	2.89296e-37 -0.000165043 	0.00605868 	0 -0.000154577 	0.00567449 	0 -0.000144112 	0.00529029 	0 -0.000133646 	0.0049061 	0 -0.000210282 	0.00419582 	2.91996e-40 -9.92957e-05 	0.00413019 	0 -9.04794e-05 	0.00376347 	0 -8.16631e-05 	0.00339676 	0 -7.28468e-05 	0.00303005 	0 -0.00011147 	0.00246048 	-1.03733e-37 -5.07333e-05 	0.00228748 	0 -4.45194e-05 	0.0020073 	0 -3.83054e-05 	0.00172713 	0 -3.20914e-05 	0.00144695 	0 -2.98636e-05 	0.000694427 	0 -1.43247e-05 	0.000644565 	0 -1.24728e-05 	0.000561235 	0 -1.06208e-05 	0.000477905 	0 -8.76893e-06 	0.000394574 	0 0 	0 	0
-0.0294749 	4.22872e-05 	0 -0.0296953 	0.000178907 	0 -0.0298034 	0.000286047 	-7.18807e-25 -0.0297815 	0.000360649 	-2.23091e-24 -0.0295947 	0.000487472 	-1.83892e-23 -0.0292782 	0.000658624 	-4.69319e-23 -0.0294096 	0.000734802 	-2.32163e-22 -0.0294682 	0.000808705 	-3.46467e-22 -0.0294104 	0.000878927 	-3.5256e-22 -0.0291314 	0.0010405 	-2.39163e-22 -0.0287517 	0.00125239 	-6.19173e-23 -0.0287955 	0.00127365 	-7.70747e-23 -0.0288123 	0.00130475 	-8.96582e-23 -0.0287242 	0.00137163 	-9.27444e-23 -0.0283308 	0.0015901 	-6.00411e-23 -0.0279119 	0.00183927 	-2.09148e-23 -0.027876 	0.00181407 	-3.32309e-23 -0.027837 	0.00178852 	-4.55451e-23 -0.0276831 	0.00187395 	-6.73531e-23 -0.0272109 	0.00215088 	-7.34455e-23 -0.0267776 	0.00243377 	-7.92095e-23 -0.0266744 	0.00237299 	-2.58921e-22 -0.0265645 	0.00231119 	-4.3872e-22 -0.026261 	0.00243166 	-4.24332e-22 -0.0257953 	0.00273684 	-2.16093e-22 -0.0253716 	0.00305005 	-7.31021e-24 -0.0252162 	0.00296626 	1.50705e-22 -0.0250526 	0.00288089 	3.08655e-22 -0.0245375 	0.00304646 	3.21563e-22 -0.0240965 	0.00335817 	2.35981e-22 -0.0237037 	0.00369828 	1.37907e-22 -0.0235123 	0.00360494 	2.74598e-22 -0.0231262 	0.00366612 	3.10124e-22 -0.022622 	0.00384125 	2.74269e-22 -0.0221463 	0.00402598 	2.37223e-22 -0.0218012 	0.00438825 	9.15936e-23 -0.0215944 	0.00435113 	8.38433e-23 -0.0211978 	0.0044947 	1.14388e-22 -0.0208198 	0.0046456 	1.45443e-22 -0.0204613 	0.00480416 	1.77027e-22 -0.0202149 	0.00492554 	2.00446e-22 -0.0201186 	0.00497947 	2.02314e-22 -0.0200243 	0.0050342 	2.04119e-22 -0.019932 	0.00508977 	2.05859e-22 -0.0198418 	0.00514616 	2.07534e-22 -0.0196872 	0.00525093 	2.15655e-22 -0.0191854 	0.00540041 	1.9551e-22 -0.0187657 	0.00561438 	1.99749e-22 -0.0183776 	0.00584355 	2.01623e-22 -0.0179457 	0.0061461 	2.20834e-22 -0.0173733 	0.00660752 	2.80038e-22 -0.0168865 	0.00673027 	1.58892e-22 -0.0164302 	0.00687141 	3.68993e-23 -0.0158741 	0.00713199 	0 -0.0154238 	0.0075645 	3.98014e-23 -0.0149962 	0.00807207 	8.05019e-23 -0.014853 	0.00814292 	3.44903e-23 -0.0147011 	0.00822723 	0 -0.0145142 	0.00834521 	0 -0.0143348 	0.00846853 	0 -0.0141902 	0.00857695 	0 -0.013864 	0.0088345 	0 -0.0135612 	0.00911129 	0 -0.0132825 	0.00940761 	0 -0.0129431 	0.00973787 	0 -0.0125689 	0.0101523 	0 -0.0122198 	0.0104137 	0 -0.0119039 	0.0107053 	0 -0.0115738 	0.0110075 	0 -0.011265 	0.0113353 	0 -0.0110702 	0.0115921 	0 -0.0108491 	0.0118612 	0 -0.0106419 	0.0121447 	0 -0.0104321 	0.0124136 	-1.80728e-23 -0.0102226 	0.0126733 	-5.05265e-23 -0.00997726 	0.0130147 	-9.10375e-23 -0.00972718 	0.0133127 	-9.7248e-23 -0.00949932 	0.013636 	-1.0454e-22 -0.00929842 	0.0139661 	-1.34915e-22 -0.00914459 	0.0142258 	-2.80946e-22 -0.00902725 	0.0144613 	-4.05169e-22 -0.00851 	0.0150648 	-6.26951e-22 -0.00805296 	0.0157241 	-8.1423e-22 -0.00772752 	0.0161968 	-5.23223e-22 -0.00743707 	0.0167186 	-2.37186e-22 -0.00724056 	0.0174134 	1.38175e-22 -0.00717219 	0.0175636 	2.35568e-22 -0.00711515 	0.0176845 	2.64875e-22 -0.00706801 	0.0177795 	2.34147e-22 -0.00702177 	0.0178759 	2.03759e-22 -0.00697028 	0.0179868 	1.69646e-22 -0.00673111 	0.0184767 	1.55484e-22 -0.00651616 	0.0190074 	1.42733e-22 -0.00632403 	0.0195761 	1.3131e-22 -0.00625143 	0.0200433 	1.33932e-22 -0.00636287 	0.0202651 	1.58936e-22 -0.00579938 	0.0208955 	9.99038e-23 -0.00526979 	0.0216134 	4.19372e-23 -0.00518091 	0.0223711 	1.72321e-22 -0.0054026 	0.0227299 	3.59226e-22 -0.00560198 	0.0230474 	5.31851e-22 -0.00502579 	0.023921 	2.35743e-22 -0.00456358 	0.0247531 	0 -0.00446031 	0.0250625 	0 -0.00456451 	0.0254292 	2.92729e-25 -0.00483139 	0.0258031 	8.16717e-25 -0.00424797 	0.0269387 	3.3147e-26 -0.00412611 	0.0273218 	0 -0.00402963 	0.0276954 	0 -0.00393831 	0.0280933 	0 -0.00407042 	0.0284931 	-1.22785e-22 -0.0038101 	0.0291347 	0 -0.0037479 	0.0293905 	0 -0.00368775 	0.0296573 	0 -0.0036296 	0.0299348 	0 -0.00354271 	0.0303801 	0 -0.00351895 	0.0305164 	0 -0.00349556 	0.0306548 	0 -0.00347254 	0.0307952 	0 -0.00344987 	0.0309375 	0 -0.00347162 	0.0308974 	0 -0.00332572 	0.0313532 	0 -0.00323633 	0.0318194 	0 -0.00315135 	0.032313 	0 -0.00307062 	0.0328329 	0 -0.00318618 	0.0324948 	0 -0.00288488 	0.0331651 	0 -0.00279886 	0.0336865 	0 -0.00271687 	0.0342361 	0 -0.00264734 	0.0347697 	0 -0.00289097 	0.0337763 	0 -0.00252242 	0.0346897 	0 -0.00238238 	0.035337 	0 -0.00230293 	0.0359326 	0 -0.0023474 	0.0359019 	0 -0.00259421 	0.0347548 	0 -0.00223136 	0.0358332 	0 -0.00199442 	0.036754 	0 -0.00191807 	0.0373839 	0 -0.0020612 	0.0367695 	0 -0.00230771 	0.0354751 	0 -0.00195534 	0.0367114 	0 -0.00164663 	0.0379679 	7.5903e-38 -0.00157553 	0.0386205 	6.44919e-37 -0.00180096 	0.037429 	1.21553e-36 -0.00204533 	0.0359964 	1.77927e-36 -0.00170729 	0.0373801 	1.1514e-36 -0.00137667 	0.0388987 	5.29796e-37 -0.00132893 	0.0393659 	7.80507e-40 -0.00157814 	0.0379021 	1.65995e-39 -0.0018213 	0.0363409 	2.52904e-39 -0.00150007 	0.0378598 	1.57426e-39 -0.00118556 	0.0395166 	6.28572e-40 -0.00115491 	0.0397872 	-3.93327e-37 -0.00140771 	0.0382093 	-9.69794e-37 -0.00165479 	0.0365262 	-1.53994e-36 -0.00135111 	0.0381698 	-9.1986e-37 -0.00105364 	0.0399535 	-3.05411e-37 -0.00104213 	0.0400616 	0 -0.0013103 	0.0383733 	0 -0.00157255 	0.0365669 	0 -0.00128545 	0.0383321 	0 -0.00100437 	0.0402406 	0 -0.00100911 	0.0401927 	0 -0.00131335 	0.0383851 	0 -0.00161048 	0.0364354 	0 -0.00133803 	0.0383369 	0 -0.00107208 	0.0403885 	0 -0.00107881 	0.0401398 	0 -0.00145165 	0.0381779 	0 -0.00181402 	0.0360292 	0 -0.00155593 	0.0381187 	0 -0.00130598 	0.0403729 	0 -0.00128369 	0.0397383 	0 -0.0017576 	0.037569 	0 -0.00222634 	0.0350978 	0 -0.00199004 	0.0375042 	0 -0.00180175 	0.0393081 	0 -0.00175526 	0.0382939 	0 -0.00221036 	0.0360378 	0 -0.00282993 	0.0329979 	0 -0.00264324 	0.0360094 	0 -0.00249789 	0.0367331 	0 -0.00238188 	0.035027 	0 -0.00260405 	0.0325728 	0 -0.00339752 	0.0285216 	0 -0.00333229 	0.0327549 	0 -0.00306287 	0.0306329 	0 -0.0027647 	0.0276509 	0 -0.00246654 	0.0246688 	0 -0.00313862 	0.0192986 	0 -0.00303957 	0.0218931 	0 -0.00238859 	0.0172043 	0 -0.00173761 	0.0125155 	0 -0.00108663 	0.00782665 	0 -9.18983e-05 	0.000441426 	0 -9.68565e-05 	0.000562231 	0 -7.6687e-05 	0.000445151 	0 -5.65175e-05 	0.000328071 	0 -3.63479e-05 	0.000210992 	0 0 	0 	0
-0.0428372 	4.73203e-05 	0 -0.042806 	0.00025802 	-2.08461e-23 -0.0427239 	0.000489737 	-4.76051e-23 -0.0426623 	0.000721965 	-7.45074e-23 -0.0426214 	0.0009547 	-1.01553e-22 -0.0425568 	0.00117806 	-1.28997e-22 -0.0424098 	0.0013726 	-1.59274e-22 -0.0422253 	0.00159008 	-1.60346e-22 -0.0420604 	0.00180907 	-1.60605e-22 -0.0419155 	0.00202958 	-1.60042e-22 -0.0418669 	0.00211585 	-1.59501e-22 -0.0418538 	0.00214334 	-1.59874e-22 -0.0418409 	0.00217084 	-1.60243e-22 -0.0418284 	0.00219838 	-1.60607e-22 -0.0418162 	0.00222594 	-1.60966e-22 -0.0417946 	0.00225823 	-1.62165e-22 -0.0415187 	0.00246458 	-1.33295e-22 -0.0412584 	0.00267247 	-1.04419e-22 -0.0410184 	0.00288301 	-7.53438e-23 -0.040799 	0.00309624 	-4.60663e-23 -0.0404873 	0.00337109 	-2.21362e-23 -0.0401752 	0.00356619 	-1.23655e-23 -0.0398539 	0.00376858 	-4.02196e-24 -0.039553 	0.00397467 	4.47486e-24 -0.0392729 	0.00418451 	1.31281e-23 -0.0387514 	0.00454365 	1.95994e-23 -0.0383924 	0.00469922 	2.00086e-22 -0.0380334 	0.00490284 	2.41845e-22 -0.0376954 	0.00511134 	2.84823e-22 -0.0372793 	0.00538387 	2.62138e-22 -0.0366408 	0.0058118 	7.46868e-23 -0.0362239 	0.00594416 	4.7463e-23 -0.0358309 	0.00609982 	2.95715e-23 -0.0354803 	0.00631899 	4.14313e-23 -0.03483 	0.00674899 	7.34709e-23 -0.0342054 	0.00720509 	1.05755e-22 -0.0337631 	0.00733571 	5.75616e-23 -0.0333385 	0.00747307 	9.17007e-24 -0.0326812 	0.00778741 	2.84616e-26 -0.0320708 	0.00825145 	1.64021e-23 -0.0314935 	0.00874385 	3.26231e-23 -0.0310588 	0.00889206 	4.99664e-24 -0.0304142 	0.00921396 	0 -0.0297556 	0.00959103 	0 -0.0291393 	0.00998987 	0 -0.028585 	0.0103983 	0 -0.0285775 	0.0104051 	0 -0.02857 	0.0104119 	0 -0.0285625 	0.0104187 	0 -0.0285537 	0.0104262 	0 -0.0285422 	0.0104352 	0 -0.0278838 	0.0108298 	0 -0.0272718 	0.0112544 	0 -0.0267046 	0.011707 	0 -0.0260846 	0.0122364 	0 -0.0253061 	0.0129279 	0 -0.0246714 	0.0133198 	0 -0.0240684 	0.0137544 	0 -0.0233281 	0.0142994 	0 -0.0226547 	0.0148924 	0 -0.0219597 	0.0156309 	0 -0.0219597 	0.0156309 	0 -0.0219597 	0.0156309 	0 -0.0219597 	0.0156309 	0 -0.0219597 	0.0156309 	0 -0.0219597 	0.0156309 	0 -0.0211986 	0.0162564 	0 -0.0205054 	0.0169452 	0 -0.0198677 	0.0176931 	2.03905e-26 -0.0191576 	0.0184582 	2.40037e-25 -0.0183247 	0.0195523 	5.29493e-25 -0.0182329 	0.0196749 	5.30802e-25 -0.0181432 	0.0197994 	5.32338e-25 -0.01805 	0.0199164 	-5.4407e-24 -0.0179511 	0.0200221 	-1.97108e-23 -0.0178592 	0.0201242 	-3.32542e-23 -0.0170828 	0.0209604 	-2.76857e-23 -0.0163856 	0.0218864 	-1.86856e-23 -0.0157337 	0.0227449 	-4.93631e-23 -0.0151653 	0.0236125 	-1.14111e-22 -0.0147701 	0.0244949 	-1.97395e-22 -0.014676 	0.0246914 	-2.63192e-22 -0.0145836 	0.0248842 	-3.13946e-22 -0.0144902 	0.0250336 	-2.50306e-22 -0.0143986 	0.025185 	-1.87096e-22 -0.0142993 	0.0253543 	-1.17781e-22 -0.0138512 	0.0260702 	2.37982e-22 -0.0134453 	0.0268389 	5.81783e-22 -0.0130797 	0.0276575 	9.13978e-22 -0.0128404 	0.028246 	6.30597e-22 -0.0126738 	0.0287235 	2.23719e-22 -0.01203 	0.02979 	-1.21114e-22 -0.0114399 	0.0309399 	-4.70615e-22 -0.011066 	0.0316325 	-7.49473e-23 -0.0108346 	0.032397 	6.74031e-22 -0.0107415 	0.0331398 	1.63804e-21 -0.0103961 	0.0339852 	2.28631e-21 -0.0101604 	0.0345543 	2.04816e-21 -0.00996289 	0.0350556 	1.56111e-21 -0.00977498 	0.0355749 	1.08429e-21 -0.00951519 	0.0363552 	4.05179e-22 -0.00942635 	0.0366523 	3.0365e-22 -0.00933998 	0.0369541 	2.02376e-22 -0.00925602 	0.0372607 	1.01354e-22 -0.00917767 	0.0375659 	2.84994e-24 -0.00924157 	0.0376186 	3.0176e-24 -0.00873589 	0.0385394 	-8.57917e-23 -0.0084663 	0.0395209 	-2.95886e-22 -0.00821853 	0.0405492 	-5.09901e-22 -0.00812165 	0.0413558 	-7.27316e-22 -0.00835963 	0.0415089 	-9.39464e-22 -0.00768947 	0.0426644 	-6.15715e-22 -0.00709919 	0.0439002 	-1.55276e-22 -0.00692062 	0.04505 	1.24635e-21 -0.00721449 	0.0452119 	2.3636e-21 -0.00749172 	0.0453398 	3.44285e-21 -0.00681697 	0.0467224 	1.91728e-21 -0.00616899 	0.0482077 	4.12611e-22 -0.00601039 	0.048835 	6.63724e-25 -0.00633355 	0.0489591 	3.62469e-24 -0.00664075 	0.0490441 	6.50527e-24 -0.00596635 	0.0506466 	2.69429e-24 -0.00546735 	0.0519574 	0 -0.00536058 	0.0523497 	0 -0.00549308 	0.0525597 	-3.00271e-21 -0.00581979 	0.0525817 	-8.4831e-21 -0.00515126 	0.0543894 	-1.61947e-21 -0.00491411 	0.0551309 	0 -0.00481085 	0.0555485 	0 -0.00471024 	0.0559869 	0 -0.00504543 	0.0559265 	-1.07495e-23 -0.00448022 	0.0576353 	0 -0.00437917 	0.0580486 	0 -0.00428046 	0.0584829 	0 -0.00418406 	0.0589379 	0 -0.00433076 	0.0590357 	2.52752e-21 -0.00397082 	0.0602586 	3.28842e-37 -0.00387719 	0.0606811 	9.62435e-37 -0.00378554 	0.0611238 	1.59492e-36 -0.00369583 	0.0615865 	2.22632e-36 -0.00369535 	0.0618969 	2.97058e-36 -0.00354437 	0.0625003 	3.23138e-36 -0.00349083 	0.0627738 	2.69041e-36 -0.00343797 	0.0630553 	2.15239e-36 -0.00338579 	0.0633446 	1.61729e-36 -0.00331648 	0.0637442 	9.01356e-37 -0.00329295 	0.0638872 	7.12633e-37 -0.00326956 	0.0640319 	5.23994e-37 -0.00324631 	0.0641782 	3.35436e-37 -0.0032232 	0.0643261 	1.46959e-37 -0.00322333 	0.064316 	4.47589e-39 -0.00313867 	0.0648154 	-5.1416e-37 -0.0030765 	0.0652449 	-1.07964e-36 -0.00301551 	0.0656894 	-1.64591e-36 -0.00295566 	0.0661489 	-2.21295e-36 -0.0029874 	0.0659412 	-2.78007e-36 -0.00286636 	0.0667541 	-2.15999e-36 -0.00283679 	0.0671911 	-1.54125e-36 -0.00280787 	0.0676373 	-9.22913e-37 -0.00277961 	0.0680925 	-3.04979e-37 -0.00289662 	0.0673559 	0 -0.00274816 	0.0685168 	0 -0.00277192 	0.0689788 	0 -0.0027956 	0.0694398 	0 -0.00281921 	0.0698997 	0 -0.00303204 	0.0685968 	0 -0.0028489 	0.0701601 	0 -0.0029588 	0.0706812 	0 -0.00306729 	0.071184 	0 -0.00317442 	0.0716689 	0 -0.00350781 	0.0696702 	0 -0.00325257 	0.071751 	0 -0.0034997 	0.0723904 	0 -0.00374262 	0.0729828 	0 -0.00401142 	0.0731162 	0 -0.00447143 	0.0704913 	0 -0.00423513 	0.0728977 	0 -0.00450321 	0.0741702 	0 -0.00495391 	0.0749341 	0 -0.00546586 	0.0740207 	0 -0.00606503 	0.0707202 	0 -0.00587834 	0.0737318 	0 -0.00602481 	0.0761534 	0 -0.00678358 	0.0772354 	0 -0.00754955 	0.0741198 	0 -0.00828579 	0.0695577 	0 -0.00822056 	0.073791 	0 -0.00817626 	0.0782042 	0 -0.00902633 	0.0784019 	0 -0.00985812 	0.0720461 	0 -0.010594 	0.0651396 	0 -0.0108001 	0.0718968 	0 -0.0110602 	0.0789959 	0 -0.0104811 	0.0752728 	0 -0.0109526 	0.0649977 	0 -0.011227 	0.0539278 	0 -0.0119477 	0.066093 	0 -0.0114023 	0.0661878 	0 -0.00989515 	0.0574392 	0 -0.008388 	0.0486905 	0 -0.00708967 	0.0307738 	0 -0.00778352 	0.0455254 	0 -0.0063228 	0.0369817 	0 -0.00486209 	0.0284381 	0 -0.00340137 	0.0198944 	0 0 	0 	0