# vtk DataFile Version 2.0
track0
ASCII
DATASET POLYDATA
POINTS 27728 float
0.05 8.57988e-20 2.57396e-18
0.05 0.00217391 -1.05592e-17
0.05 0.00217391 -1.05592e-17
0.05 0.00217391 -1.05592e-17
0.05 0.00217391 -1.05592e-17
0.05 0.00217391 -1.05592e-17
0.05 0.00217391 -1.38778e-17
0.0493333 0.00217783 -8.74301e-18
0.0486667 0.00218214 -7.84095e-18
0.048 0.00218745 -1.09635e-17
0.0473334 0.00219542 -7.12556e-18
0.0466667 0.00220594 -6.93889e-18
0.046 0.00221906 -1.08247e-17
0.0453333 0.00223121 -1.3392e-17
0.0446666 0.00224361 -1.83294e-17
0.044 0.00225861 -2.58941e-17
0.0433333 0.00227691 -3.19189e-17
0.0426667 0.00229909 -2.60902e-17
0.0419999 0.00231908 -2.62295e-17
0.0413332 0.00233913 -2.37687e-17
0.0406665 0.00236179 -2.33621e-17
0.04 0.00238816 -2.63678e-17
0.0393333 0.00241961 -2.33147e-17
0.0386665 0.00244783 -2.4841e-17
0.0379997 0.00247664 -2.66153e-17
0.0373331 0.00250818 -2.22862e-17
0.0366667 0.00254332 -2.498e-17
0.036 0.00258469 -2.1233e-17
0.0353331 0.00262195 -2.51858e-17
0.0346663 0.00266129 -2.60088e-17
0.0339997 0.0027036 -3.39815e-17
0.0333333 0.002749 -3.19189e-17
0.0326667 0.00280148 -4.19109e-17
0.0319997 0.00285065 -4.32289e-17
0.0313331 0.00290309 -4.49871e-17
0.0306667 0.00295892 -5.1208e-17
0.03 0.00301833 -4.996e-17
0.0293591 0.00308133 -5.93011e-17
0.0287182 0.00314404 -5.75398e-17
0.0280776 0.00321029 -5.75297e-17
0.0274374 0.00328022 -5.43161e-17
0.0269768 0.00333333 -6.58388e-17
0.0269147 0.00334076 -6.32181e-17
0.0268527 0.00334823 -5.78219e-17
0.0267907 0.00335574 -6.07524e-17
0.0267287 0.00336328 -7.06217e-17
0.0266667 0.00337087 -6.65196e-17
0.026 0.00345359 -6.35374e-17
0.0253338 0.00354026 -5.77698e-17
0.0246683 0.00363163 -6.15507e-17
0.0240035 0.0037279 -6.21782e-17
0.0233333 0.00383017 -6.88286e-17
0.0226667 0.00394868 -6.34748e-17
0.0219996 0.00406479 -6.4362e-17
0.0213335 0.00418673 -5.98152e-17
0.0206686 0.00431472 -6.25375e-17
0.02 0.0044573 -4.59252e-17
0.0193333 0.00462662 -4.96987e-17
0.0186664 0.00479506 -5.55451e-17
0.0179993 0.00496256 -5.65989e-17
0.0173353 0.00514188 -5.42894e-17
0.0166667 0.00535187 -5.82867e-17
0.016 0.00559383 -5.52336e-17
0.0153343 0.00583833 -5.74517e-17
0.0146732 0.00609518 -5.67367e-17
0.0140208 0.00637344 -5.6843e-17
0.0133957 0.00666667 -5.83906e-17
0.0133832 0.00667309 -6.53087e-17
0.0133708 0.00667952 -5.97368e-17
0.0133583 0.00668597 -5.69405e-17
0.0133458 0.00669242 -5.0827e-17
0.0133333 0.00669892 -5.55649e-17
0.0126667 0.00704631 -5.33678e-17
0.0120135 0.00741854 -5.32938e-17
0.0113762 0.00781723 -5.50275e-17
0.0107568 0.00824311 -5.61709e-17
0.01 0.00882558 -4.30211e-17
0.00973683 0.00906047 -4.0976e-17
0.00947743 0.0092995 -4.17158e-17
0.00922189 0.00954266 -4.14954e-17
0.0089703 0.00978991 -4.00422e-17
0.00876334 0.01 -3.60822e-17
0.00834401 0.0104373 -3.77653e-17
0.00794584 0.010894 -4.57238e-17
0.00756985 0.0113691 -4.77963e-17
0.00721438 0.0118598 -5.63532e-17
0.00666667 0.0126794 -4.996e-17
0.00658989 0.0128102 -4.87001e-17
0.00651398 0.0129415 -5.16021e-17
0.00643893 0.0130733 -5.72782e-17
0.00636474 0.0132055 -5.91717e-17
0.00629349 0.0133333 -5.68989e-17
0.00592328 0.014 -4.96825e-17
0.00559011 0.0146859 -5.29064e-17
0.00528827 0.0153862 -5.40972e-17
0.00501093 0.0160965 -6.52308e-17
0.00478988 0.0166667 -6.80056e-17
0.00453269 0.0173333 -6.50052e-17
0.00431264 0.0180132 -6.78016e-17
0.00411751 0.0187006 -6.71602e-17
0.003932 0.0193906 -6.46877e-17
0.00377684 0.02 -5.85549e-17
0.00368814 0.0203396 -6.1832e-17
0.00360835 0.0206814 -5.83038e-17
0.00353095 0.0210238 -5.69109e-17
0.00345568 0.0213666 -5.48268e-17
0.00333333 0.0219402 -6.38378e-17
0.00327671 0.0222189 -6.53199e-17
0.00322129 0.0224977 -6.40244e-17
0.00316704 0.0227768 -6.2727e-17
0.00311393 0.0230561 -6.28154e-17
0.00306235 0.0233333 -6.10623e-17
0.00293558 0.024 -5.66214e-17
0.00282026 0.0246687 -5.94698e-17
0.00271139 0.0253386 -6.50598e-17
0.00260853 0.0260093 -5.94034e-17
0.00251193 0.0266667 -6.80012e-17
0.00240352 0.0273333 -6.21725e-17
0.00231173 0.0280025 -5.73784e-17
0.00223026 0.028673 -5.38787e-17
0.00215352 0.029344 -6.01383e-17
0.00207186 0.03 -5.41234e-17
0.00197712 0.0306667 -5.66214e-17
0.0018999 0.0313356 -5.49598e-17
0.00183939 0.0320062 -5.25028e-17
0.00178076 0.032677 -5.24919e-17
0.00171081 0.0333333 -4.996e-17
0.00162658 0.034 -5.44601e-17
0.00156105 0.0346688 -5.20272e-17
0.00151294 0.035339 -5.01719e-17
0.00146588 0.0360093 -4.5838e-17
0.00140567 0.0366667 -4.95254e-17
0.00132971 0.0373333 -5.84194e-17
0.00127404 0.038002 -5.61463e-17
0.00123529 0.0386719 -5.67688e-17
0.00119654 0.0393417 -5.25331e-17
0.00114491 0.04 -4.70095e-17
0.00107561 0.0406667 -5.10574e-17
0.00102872 0.0413353 -4.6327e-17
0.000993368 0.0420046 -5.12167e-17
0.000958019 0.0426739 -4.49524e-17
0.000914518 0.0433333 -4.17686e-17
0.000850663 0.044 -4.58256e-17
0.00081219 0.0446686 -4.42317e-17
0.00077961 0.0453375 -4.56649e-17
0.00074703 0.0460065 -4.26163e-17
0.000711872 0.0466667 -3.93494e-17
0.000652505 0.0473333 -3.61237e-17
0.000622184 0.048002 -3.69764e-17
0.000591863 0.0486706 -3.10927e-17
0.000561541 0.0493392 -3.01245e-17
0.000531574 0.05 -2.7253e-17
0.000475874 0.0506667 -2.41419e-17
0.000447355 0.051335 -2.97467e-17
0.000418836 0.0520034 -2.93572e-17
0.000390317 0.0526718 -2.66539e-17
0.00036209 0.0533333 -2.41952e-17
0.000309278 0.054 -2.61196e-17
0.000282093 0.0546682 -2.87779e-17
0.000254908 0.0553364 -2.86627e-17
0.000227723 0.0560046 -2.80408e-17
0.000200788 0.0566667 -2.809e-17
0.00016063 0.0571941 -2.99202e-17
0.000139744 0.0577227 -3.38624e-17
0.000118858 0.0582513 -3.64167e-17
9.79721e-05 0.0587799 -2.91932e-17
4.97644e-05 0.06 -2.92262e-17
3.98115e-05 0.0601336 -2.60382e-17
3.45392e-05 0.0602674 -2.09493e-17
2.92669e-05 0.0604012 -2.01973e-17
2.39946e-05 0.060535 -1.33737e-17
0 0.0611441 -1.89114e-17
0.05 0.00434783 5.94331e-18
0.0493333 0.0043526 -1.00352e-18
0.0486667 0.00435957 -5.87236e-18
0.0480001 0.00436837 -6.73083e-18
0.0473335 0.00437861 -7.34942e-18
0.0466667 0.00439162 -1.06852e-18
0.046 0.00440854 9.84978e-19
0.0453334 0.00442649 3.03676e-18
0.0446668 0.00444561 5.55687e-19
0.0440002 0.00446615 5.34981e-18
0.0433333 0.00449048 1.81008e-18
0.0426667 0.00451983 5.47507e-18
0.042 0.00454921 1.0528e-17
0.0413333 0.00457889 1.20043e-17
0.0406668 0.00461004 9.56399e-18
0.04 0.00464664 2.67014e-18
0.0393333 0.00468949 -2.25845e-18
0.0386666 0.00473154 -2.67543e-18
0.0379998 0.0047728 -4.15981e-18
0.0373332 0.00481623 2.74726e-18
0.0366667 0.00486689 1.15652e-18
0.036 0.00492517 -2.0279e-18
0.0353332 0.00498206 -4.11415e-18
0.0346663 0.00503753 -5.99503e-18
0.0339997 0.00509648 -3.95436e-18
0.0333333 0.00516407 -6.93889e-18
0.0326667 0.00524082 -5.27356e-18
0.0319998 0.00531582 -4.30162e-18
0.0313327 0.00538904 -7.25003e-18
0.0306663 0.0054679 -3.90171e-18
0.03 0.00555668 -5.55112e-18
0.0293333 0.00565637 -7.35523e-18
0.0286664 0.00575427 -9.22829e-18
0.0279999 0.00585512 -8.15177e-18
0.0273345 0.00596308 -9.93052e-18
0.0266667 0.00607951 -6.93889e-18
0.0260604 0.00619694 -1.00926e-17
0.0254542 0.00631467 -7.69529e-18
0.0248494 0.0064393 -7.56837e-18
0.0242461 0.00657119 -6.96562e-18
0.0238344 0.00666667 -6.3856e-18
0.0237342 0.00669087 -1.0382e-17
0.023634 0.0067153 -1.88857e-18
0.0235339 0.00673996 -3.34078e-19
0.0234339 0.00676486 -1.55524e-18
0.0233333 0.00679014 -5.75674e-18
0.0226667 0.00696075 -1.87752e-18
0.0220025 0.00714101 -9.11662e-18
0.0213415 0.00733219 -1.22615e-17
0.0206838 0.0075348 -9.06059e-18
0.02 0.00776123 -1.04497e-17
0.0193333 0.00800727 -3.59007e-18
0.0186708 0.00826426 -3.72874e-18
0.0180129 0.00853282 -1.54653e-18
0.0173623 0.00881858 -4.97144e-18
0.0166667 0.00915371 -6.93889e-18
0.0163484 0.00932297 -1.302e-17
0.0160319 0.00949548 -5.88175e-18
0.0157174 0.00967167 -1.29908e-17
0.0154057 0.00985269 -5.18583e-18
0.0151609 0.01 -6.93889e-18
0.0147954 0.0102264 -5.03692e-18
0.0144351 0.010461 -4.47043e-19
0.0140803 0.0107039 -3.32568e-18
0.0137314 0.0109551 -2.54182e-18
0.0133333 0.0112582 -1.74836e-18
0.0128231 0.0116732 3.31369e-18
0.0123262 0.012104 6.64938e-18
0.011843 0.0125502 1.11555e-17
0.0113747 0.0130119 1.00807e-17
0.0110692 0.0133333 2.05419e-17
0.0108553 0.0135683 2.33724e-17
0.0106465 0.0138077 2.33776e-17
0.0104426 0.0140513 2.68264e-17
0.0102436 0.014299 3.03457e-17
0.01 0.0146142 2.46712e-17
0.00969784 0.0150247 3.14157e-17
0.00940594 0.0154426 2.26029e-17
0.00912421 0.0158673 2.71324e-17
0.00885219 0.0162984 2.68915e-17
0.00862812 0.0166667 3.19189e-17
0.00823583 0.0173314 3.02008e-17
0.00787431 0.0180133 3.01839e-17
0.00754125 0.0187096 3.28589e-17
0.00722766 0.0194149 3.32328e-17
0.00698559 0.02 3.82667e-17
0.00692181 0.020161 3.11685e-17
0.00685957 0.0203226 3.64718e-17
0.00679855 0.0204847 3.5629e-17
0.00673847 0.0206472 3.63465e-17
0.00666667 0.0208449 3.95805e-17
0.00648975 0.0213425 3.73543e-17
0.00632075 0.021843 3.82817e-17
0.00615928 0.0223459 4.91151e-17
0.00600492 0.0228511 4.34293e-17
0.00586235 0.0233333 4.996e-17
0.00566366 0.024 4.60743e-17
0.00548555 0.0246725 4.84238e-17
0.0053244 0.0253492 4.76851e-17
0.00517293 0.0260281 5.17537e-17
0.00502628 0.0266667 4.996e-17
0.00486923 0.0273333 5.90009e-17
0.0047313 0.0280042 6.14319e-17
0.00461117 0.0286785 6.39569e-17
0.00449552 0.0293536 6.50437e-17
0.00437972 0.03 6.41769e-17
0.00425483 0.0306667 6.57727e-17
0.00414755 0.0313364 6.19319e-17
0.00404774 0.0320073 6.77809e-17
0.00395086 0.0326786 6.56221e-17
0.00385921 0.0333333 6.29621e-17
0.00375982 0.034 6.84011e-17
0.00367252 0.0346684 5.50879e-17
0.00358784 0.0353371 5.32151e-17
0.00350568 0.0360061 5.38357e-17
0.00342698 0.0366667 5.95185e-17
0.00340825 0.0368254 5.31354e-17
0.00339005 0.0369842 5.07413e-17
0.00337198 0.037143 5.31175e-17
0.00335404 0.0373018 5.44527e-17
0.00333333 0.0374865 5.27581e-17
0.00327745 0.0379892 5.60843e-17
0.00322284 0.038492 5.53271e-17
0.00316944 0.038995 5.52382e-17
0.00311724 0.0394981 5.65391e-17
0.00306632 0.04 6.10623e-17
0.00299702 0.0406667 5.30131e-17
0.00293274 0.0413338 6.05757e-17
0.00287041 0.0420012 5.75158e-17
[...]
POINT_DATA 27728
 FIELD attributes 1
U 3 27728 float
-4.49965e-19 	1.70535e-23 	0
-0.0103686 	6.09596e-05 	0 -0.0103686 	6.09596e-05 	0 -0.0103686 	6.09596e-05 	0 -0.0103686 	6.09596e-05 	0 -0.0103686 	6.09596e-05 	0 -0.0103686 	6.09596e-05 	0 -0.01067 	6.90134e-05 	0 -0.0108797 	8.65769e-05 	-1.13512e-24 -0.0108424 	0.000129713 	-5.32282e-24 -0.0106166 	0.000167446 	-9.52699e-24 -0.0103232 	0.000203184 	-1.37475e-23 -0.0106177 	0.000193414 	5.20766e-22 -0.0107838 	0.000200638 	8.68852e-22 -0.0107116 	0.00024098 	8.55801e-22 -0.0105074 	0.000288469 	5.1343e-22 -0.010233 	0.000340467 	-2.43384e-23 -0.0105122 	0.00031516 	3.61382e-22 -0.0106093 	0.0003191 	6.0149e-22 -0.0105083 	0.000357121 	6.73788e-22 -0.0103354 	0.000408865 	5.68286e-22 -0.010087 	0.000475893 	2.6699e-22 -0.0103441 	0.000437704 	1.95974e-22 -0.0103502 	0.000447328 	2.0927e-22 -0.0102278 	0.000483867 	2.69451e-22 -0.0100859 	0.000531823 	3.48188e-22 -0.00986942 	0.000612387 	4.80816e-22 -0.0100986 	0.000564232 	3.62603e-22 -0.00999706 	0.000589805 	2.88772e-22 -0.0098611 	0.000625971 	2.21455e-22 -0.00973526 	0.000663206 	1.54938e-22 -0.00955973 	0.000752481 	1.99724e-22 -0.00969306 	0.000714742 	1.6469e-22 -0.00954154 	0.000750492 	1.19053e-22 -0.00939994 	0.000787546 	7.36134e-23 -0.00926867 	0.000825957 	2.83798e-23 -0.0091413 	0.000898586 	5.42746e-25 -0.00913107 	0.000893385 	-9.63819e-24 -0.00898673 	0.000929427 	-6.9766e-24 -0.00885179 	0.000966983 	-4.16993e-24 -0.00872664 	0.00100611 	-1.21229e-24 -0.00864384 	0.00103547 	1.03013e-24 -0.0086336 	0.00103962 	1.35517e-24 -0.00862346 	0.00104378 	1.68184e-24 -0.00861342 	0.00104796 	2.01013e-24 -0.00860348 	0.00105216 	2.34005e-24 -0.00858052 	0.00106474 	1.26426e-24 -0.00842829 	0.0010965 	1.75927e-24 -0.00828831 	0.0011379 	2.51207e-24 -0.00815895 	0.00118142 	3.2544e-24 -0.00804065 	0.00122715 	3.98577e-24 -0.00778212 	0.00138337 	1.89838e-23 -0.0075901 	0.00132103 	1.43526e-22 -0.00746482 	0.00136667 	1.70526e-22 -0.00735022 	0.00141494 	1.98819e-22 -0.00716858 	0.00152866 	1.76309e-22 -0.006886 	0.00174885 	7.39453e-23 -0.00670374 	0.00169323 	2.03755e-22 -0.00652003 	0.00163699 	3.33557e-22 -0.00634785 	0.00171419 	3.42528e-22 -0.00611254 	0.00191976 	2.32118e-22 -0.00590846 	0.00214444 	1.22565e-22 -0.00575661 	0.00211418 	2.43974e-22 -0.00554387 	0.00215401 	2.79342e-22 -0.00529507 	0.00225861 	2.43996e-22 -0.00507405 	0.00238009 	2.06244e-22 -0.00488852 	0.00251609 	1.6699e-22 -0.00488472 	0.00251957 	1.66189e-22 -0.00488092 	0.00252307 	1.65386e-22 -0.00487715 	0.00252658 	1.64583e-22 -0.00487183 	0.00253085 	1.64551e-22 -0.00486583 	0.00253549 	1.64852e-22 -0.0046288 	0.00263808 	1.20502e-22 -0.004421 	0.00276563 	7.54534e-23 -0.00423795 	0.00291358 	2.89471e-23 -0.00402644 	0.00309914 	2.19202e-23 -0.00378004 	0.00337377 	2.57401e-23 -0.00371379 	0.00342224 	1.48241e-23 -0.00365218 	0.00347514 	3.8997e-24 -0.00359092 	0.00352903 	2.19725e-23 -0.00353201 	0.00358546 	5.61421e-23 -0.00348673 	0.00363638 	8.47094e-23 -0.00329472 	0.003779 	8.34766e-23 -0.0031221 	0.00394524 	7.94676e-23 -0.00297295 	0.00410352 	7.26953e-23 -0.00284475 	0.00425672 	6.34682e-23 -0.0026626 	0.00453578 	4.48992e-23 -0.00264242 	0.00457062 	7.27569e-23 -0.00262295 	0.00460641 	1.00163e-22 -0.00260418 	0.00464314 	1.27121e-22 -0.00260232 	0.00466736 	7.01558e-23 -0.00260368 	0.00468869 	1.36987e-25 -0.00234394 	0.00482565 	-3.65043e-22 -0.00218406 	0.00506707 	-6.09921e-22 -0.00209067 	0.00535492 	-7.6998e-22 -0.00214741 	0.00553835 	-6.04303e-22 -0.00219407 	0.00568734 	-4.71146e-22 -0.00192468 	0.00594615 	-3.23684e-22 -0.00175089 	0.00616794 	-1.95301e-22 -0.00169281 	0.00629709 	-9.98796e-23 -0.00164008 	0.00644136 	-2.0768e-24 -0.00174296 	0.00667302 	-3.32526e-23 -0.0016068 	0.00688267 	-1.14014e-24 -0.00157451 	0.0069652 	0 -0.00154738 	0.00704747 	0 -0.0015216 	0.00713423 	0 -0.00148071 	0.00728652 	0 -0.00146287 	0.00736067 	0 -0.00144578 	0.00743747 	0 -0.00142944 	0.00751683 	0 -0.00141381 	0.0075987 	0 -0.00143977 	0.0075717 	0 -0.00132545 	0.00768623 	0 -0.00128312 	0.00789481 	0 -0.00124541 	0.00812166 	0 -0.00122393 	0.00832833 	0 -0.00132762 	0.00816366 	0 -0.00113573 	0.00827993 	0 -0.00103325 	0.00850304 	0 -0.00100689 	0.00880523 	0 -0.00109005 	0.00875585 	0 -0.00121165 	0.00852633 	0 -0.00100588 	0.00871399 	0 -0.00080985 	0.00897572 	0 -0.000804734 	0.00920666 	0 -0.000955627 	0.00896656 	0 -0.0010952 	0.00866791 	0 -0.000875583 	0.00893521 	0 -0.000667412 	0.00929944 	0 -0.000648779 	0.00923966 	0 -0.000819661 	0.00894922 	0 -0.000977466 	0.00857866 	0 -0.000743784 	0.00893374 	0 -0.000540297 	0.00933984 	0 -0.000523864 	0.00905576 	0 -0.000683402 	0.00871443 	0 -0.000859843 	0.00827144 	0 -0.000611752 	0.00872251 	0 -0.000470067 	0.0089006 	0 -0.000453915 	0.00859475 	0 -0.000542494 	0.00822324 	0 -0.000738623 	0.00771143 	0 -0.000475681 	0.00826684 	0 -0.000398469 	0.0081812 	0 -0.000382485 	0.00785302 	0 -0.000399117 	0.00749486 	0 -0.000616674 	0.00692493 	0 -0.000343148 	0.00756682 	0 -0.000327203 	0.0072152 	0 -0.000311257 	0.00686358 	0 -0.000295311 	0.00651196 	0 -0.000493624 	0.00590811 	0 -0.000268608 	0.00629517 	0 -0.000252511 	0.0059179 	0 -0.000236413 	0.00554063 	0 -0.000220315 	0.00516336 	0 -0.000361365 	0.00456169 	2.31388e-37 -0.000188493 	0.0046331 	0 -0.000171925 	0.00422586 	0 -0.000155356 	0.00381862 	0 -0.000138788 	0.00341138 	0 -0.000216922 	0.00284933 	2.34724e-40 -0.000107088 	0.00271025 	0 -9.31642e-05 	0.00235785 	0 -7.92399e-05 	0.00200544 	0 -6.53157e-05 	0.00165304 	0 -5.90109e-05 	0.000791872 	-3.17429e-38 -2.9711e-05 	0.000754147 	0 -2.57764e-05 	0.000654274 	0 -2.18417e-05 	0.000554402 	0 -1.7907e-05 	0.000454529 	0 0 	0 	0
-0.0199605 	0.000142819 	0 -0.0201546 	0.000210777 	0 -0.0202494 	0.000267318 	-1.91373e-24 -0.0202279 	0.000310784 	-6.01333e-24 -0.0200552 	0.000391379 	-5.01061e-23 -0.0197692 	0.000501683 	-1.26028e-22 -0.0199089 	0.000535996 	-6.16775e-22 -0.0199818 	0.000573047 	-9.325e-22 -0.0199391 	0.000614638 	-9.51311e-22 -0.0197003 	0.000718634 	-6.64653e-22 -0.0193796 	0.000853346 	-2.32911e-22 -0.0194657 	0.000857872 	-5.12607e-22 -0.0195246 	0.000869036 	-7.29526e-22 -0.019464 	0.000909623 	-6.6879e-22 -0.0191416 	0.00105064 	-2.93124e-22 -0.0188 	0.00120835 	1.2712e-22 -0.018836 	0.00118816 	7.14711e-22 -0.018869 	0.00116764 	1.3025e-21 -0.0187602 	0.00122207 	1.34596e-21 -0.0183878 	0.00139772 	8.44155e-22 -0.0180395 	0.00157702 	3.41042e-22 -0.0180309 	0.00153817 	5.9192e-22 -0.0180176 	0.0014986 	8.43109e-22 -0.0178164 	0.00157554 	7.96982e-22 -0.0174491 	0.00177007 	4.51327e-22 -0.0171081 	0.00196953 	1.05149e-22 -0.017062 	0.00191887 	3.96841e-23 -0.0170106 	0.00186717 	-2.56677e-23 -0.0166742 	0.00197302 	-2.23892e-23 -0.016329 	0.00217574 	-8.25222e-24 -0.0160084 	0.00239386 	6.85319e-24 -0.015933 	0.00233881 	3.37277e-23 -0.0157055 	0.00237642 	4.48124e-23 -0.0153652 	0.00249308 	4.29074e-23 -0.0150434 	0.00262258 	3.93329e-23 -0.0147548 	0.00285797 	1.49718e-23 -0.0146264 	0.00284061 	1.60292e-23 -0.0143204 	0.00295084 	3.39613e-23 -0.0140292 	0.00306712 	5.20947e-23 -0.0137538 	0.00318977 	7.04379e-23 -0.0135767 	0.00327826 	8.31398e-23 -0.0135358 	0.00330155 	8.46292e-23 -0.0134954 	0.00332504 	8.61095e-23 -0.0134555 	0.00334875 	8.75806e-23 -0.0134161 	0.00337267 	8.90424e-23 -0.0133449 	0.0034151 	9.11678e-23 -0.0130167 	0.00353321 	8.92886e-23 -0.0127205 	0.00367865 	9.3748e-23 -0.0124447 	0.00383414 	9.71637e-23 -0.0121504 	0.0040231 	1.04712e-22 -0.0117143 	0.00432328 	1.316e-22 -0.0113923 	0.00441895 	7.7949e-23 -0.0110897 	0.00452698 	2.38981e-23 -0.0107394 	0.00471672 	7.06343e-24 -0.0103885 	0.00500509 	2.83727e-23 -0.0100452 	0.00534206 	4.94243e-23 -0.00992474 	0.00540905 	2.0952e-23 -0.00979415 	0.00548722 	0 -0.00962718 	0.00559031 	0 -0.00946776 	0.00569903 	0 -0.00934758 	0.00578971 	0 -0.00914544 	0.00595533 	0 -0.00895568 	0.00613153 	0 -0.00877868 	0.00631844 	0 -0.00855782 	0.00651698 	0 -0.00831295 	0.00676234 	0 -0.00804316 	0.00697129 	0 -0.00779961 	0.00720478 	0 -0.00754503 	0.00743727 	0 -0.00730623 	0.00768666 	0 -0.00716413 	0.00787151 	0 -0.00702309 	0.00804974 	0 -0.00688997 	0.00823626 	0 -0.00675517 	0.00840629 	6.87211e-24 -0.00662196 	0.00856864 	1.80187e-23 -0.00646409 	0.0087815 	3.19674e-23 -0.00628703 	0.0089996 	3.46709e-23 -0.0061252 	0.00923514 	3.7814e-23 -0.0059811 	0.00947764 	3.5749e-23 -0.00587392 	0.00965455 	-1.20988e-23 -0.00579184 	0.00981399 	-5.21559e-23 -0.00543562 	0.0102534 	-8.63219e-23 -0.00512611 	0.0107165 	-1.18461e-22 -0.00491085 	0.0110444 	-1.54905e-22 -0.00471826 	0.011405 	-1.89284e-22 -0.00466272 	0.0117707 	-2.99444e-22 -0.00459207 	0.0119264 	-3.30221e-22 -0.00453625 	0.0120478 	-3.1822e-22 -0.00449121 	0.0121447 	-2.75451e-22 -0.00444742 	0.0122435 	-2.3312e-22 -0.00439574 	0.0123659 	-1.82238e-22 -0.00427255 	0.0126519 	-1.30011e-22 -0.00415959 	0.0129553 	-7.8117e-23 -0.00405633 	0.0132751 	-2.65501e-23 -0.00400488 	0.0135469 	1.12424e-23 -0.0040694 	0.0136545 	1.29868e-23 -0.00372436 	0.0140609 	8.54312e-24 -0.00346183 	0.0145374 	8.24567e-23 -0.00336568 	0.0150866 	3.33719e-22 -0.00350983 	0.0152821 	5.9506e-22 -0.00364074 	0.0154545 	8.38763e-22 -0.00328942 	0.0160001 	4.30654e-22 -0.00295822 	0.0166041 	2.99326e-23 -0.00288205 	0.016824 	0 -0.00305511 	0.0170531 	3.37805e-25 -0.00323293 	0.0172576 	6.85311e-25 -0.00287631 	0.0179573 	1.66894e-25 -0.0027286 	0.0183394 	0 -0.00267928 	0.0185668 	0 -0.00263253 	0.0188068 	0 -0.0028394 	0.0190439 	-2.20828e-22 -0.00257318 	0.0197019 	0 -0.0025277 	0.0199601 	0 -0.0024847 	0.0202317 	0 -0.00244409 	0.0205161 	0 -0.00245427 	0.0207997 	1.39181e-22 -0.00240328 	0.0209639 	0 -0.00239352 	0.0210344 	0 -0.0023839 	0.0211057 	0 -0.00237441 	0.0211778 	0 -0.00236353 	0.0212625 	0 -0.00233437 	0.0214913 	0 -0.00230651 	0.0217278 	0 -0.00227991 	0.0219717 	0 -0.00225453 	0.022223 	0 -0.00230284 	0.0221527 	0 -0.00217061 	0.0225311 	0 -0.00213759 	0.0228866 	0 -0.00210673 	0.023256 	0 -0.00207793 	0.0236386 	0 -0.0022223 	0.0232015 	0 -0.00196725 	0.0237496 	0 -0.00194095 	0.0241672 	0 -0.00191663 	0.0245985 	0 -0.00193941 	0.0248088 	0 -0.00214388 	0.0240746 	0 -0.00186553 	0.024743 	0 -0.00174212 	0.0253243 	0 -0.00172545 	0.0258255 	0 -0.00184492 	0.0256007 	0 -0.00206779 	0.0247491 	0 -0.0017733 	0.0255395 	0 -0.00154162 	0.0263565 	8.01615e-38 -0.00153475 	0.0269379 	4.81976e-37 -0.00175584 	0.0262145 	8.84474e-37 -0.00199916 	0.0252363 	1.28009e-36 -0.00168742 	0.0261591 	8.2032e-37 -0.00138516 	0.0272065 	3.66339e-37 -0.00139688 	0.0276348 	6.3348e-40 -0.00167491 	0.0266284 	1.3748e-39 -0.00194226 	0.0255122 	2.10166e-39 -0.00161165 	0.0265799 	1.26299e-39 -0.00129186 	0.0277954 	4.35516e-40 -0.00129569 	0.0279404 	-2.19505e-37 -0.00160568 	0.0268063 	-6.25765e-37 -0.00190301 	0.0255367 	-1.02366e-36 -0.00155109 	0.0267665 	-5.66731e-37 -0.0012119 	0.0281737 	-1.16353e-37 -0.00120178 	0.0280033 	0 -0.00155438 	0.0267288 	0 -0.00189118 	0.0252828 	0 -0.00151474 	0.0267014 	0 -0.00115455 	0.0283315 	0 -0.00113097 	0.0277529 	0 -0.00152502 	0.0263442 	0 -0.00191605 	0.0246848 	0 -0.00151171 	0.0263367 	0 -0.0012174 	0.0275178 	0 -0.00118611 	0.0268105 	0 -0.00150389 	0.0254215 	0 -0.0019715 	0.0234883 	0 -0.0015381 	0.025454 	0 -0.00132027 	0.0259444 	0 -0.00127327 	0.025021 	0 -0.00145478 	0.0236657 	0 -0.00203103 	0.021364 	0 -0.00157611 	0.0237962 	0 -0.00143712 	0.0231157 	0 -0.0013563 	0.0218157 	0 -0.00127547 	0.0205156 	0 -0.00199779 	0.0177309 	0 -0.00159113 	0.0199069 	0 -0.00143348 	0.0179346 	0 -0.00127583 	0.0159622 	0 -0.00111818 	0.0139899 	0 -0.00151364 	0.0109404 	0 -0.00124191 	0.0117549 	0 -0.00100389 	0.00950202 	0 -0.000765865 	0.0072491 	0 -0.000527845 	0.00499618 	0 0 	0 	0
-0.0286645 	0.000248564 	0 -0.0286433 	0.000368147 	-5.57534e-23 -0.0285718 	0.000502302 	-1.27116e-22 -0.0285116 	0.000636909 	-1.98806e-22 -0.0284629 	0.000771967 	-2.70824e-22 -0.0283952 	0.000904349 	-3.43757e-22 -0.0283178 	0.000995528 	-4.31393e-22 -0.0282093 	0.00109872 	-4.6151e-22 -0.0281081 	0.00120254 	-4.90479e-22 -0.0280141 	0.00130701 	-5.1829e-22 -0.0279945 	0.00133076 	-5.24311e-22 -0.0279629 	0.00137217 	-5.37357e-22 -0.0279324 	0.00141368 	-5.5031e-22 -0.0279032 	0.0014553 	-5.63169e-22 -0.0278751 	0.00149703 	-5.75933e-22 -0.027829 	0.00154628 	-5.94254e-22 -0.0276511 	0.00167047 	-5.1007e-22 -0.0274741 	0.00179526 	-4.29093e-22 -0.0273087 	0.00192165 	-3.47299e-22 -0.027155 	0.00204964 	-2.64675e-22 -0.0269133 	0.00222114 	-1.93268e-22 -0.026727 	0.00233892 	-4.78553e-22 -0.0265125 	0.0024637 	-4.77851e-22 -0.0263098 	0.0025907 	-4.80226e-22 -0.0261194 	0.00271995 	-4.85746e-22 -0.0257295 	0.002947 	1.39745e-22 -0.0255333 	0.00304342 	-3.81301e-22 -0.0252938 	0.00317244 	-4.29104e-22 -0.025067 	0.00330443 	-4.79273e-22 -0.0247696 	0.00347985 	-3.68163e-22 -0.0243055 	0.00374866 	9.7071e-23 -0.0240682 	0.00383831 	4.13097e-23 -0.0238361 	0.00394104 	-1.36976e-24 -0.0235989 	0.00408315 	1.99534e-24 -0.0231251 	0.00435838 	3.66887e-24 -0.0226674 	0.00464848 	5.29687e-24 -0.0224067 	0.00474243 	2.89267e-24 -0.0221567 	0.00484061 	4.78513e-25 -0.0217249 	0.0050494 	5.96821e-26 -0.0212748 	0.00534826 	2.79855e-24 -0.0208439 	0.00566511 	5.51115e-24 -0.0205789 	0.00577485 	9.47165e-25 -0.020151 	0.00598984 	0 -0.0196993 	0.00624279 	0 -0.0192733 	0.0065098 	0 -0.0188598 	0.00680544 	5.8219e-25 -0.0188556 	0.00680777 	1.43069e-25 -0.0188491 	0.0068114 	0 -0.0188415 	0.00681566 	0 -0.0188339 	0.00681993 	0 -0.0188263 	0.00682417 	0 -0.0183835 	0.00709132 	0 -0.0179666 	0.0073757 	0 -0.0175771 	0.00767803 	0 -0.0171504 	0.00802434 	0 -0.0166015 	0.00847124 	0 -0.0161702 	0.00875352 	0 -0.0157648 	0.00906142 	0 -0.0152479 	0.00943302 	0 -0.014773 	0.00983623 	0 -0.0142776 	0.0103458 	0 -0.0142727 	0.0103509 	0 -0.0142677 	0.010356 	0 -0.0142612 	0.0103612 	0 -0.0142546 	0.0103664 	0 -0.014248 	0.0103716 	0 -0.0137281 	0.0108056 	0 -0.0132517 	0.0112816 	0 -0.0128087 	0.0117938 	4.13634e-24 -0.0123256 	0.0123024 	3.88127e-23 -0.0117415 	0.0130431 	8.5448e-23 -0.0116843 	0.0131214 	8.57516e-23 -0.0116282 	0.0132007 	8.60863e-23 -0.0115708 	0.0132748 	8.82089e-23 -0.0115102 	0.0133391 	9.33771e-23 -0.0114534 	0.0134014 	9.83303e-23 -0.010922 	0.0139877 	2.19625e-22 -0.0104435 	0.0146349 	3.45653e-22 -0.0100083 	0.0152213 	1.18907e-22 -0.00966703 	0.0158198 	-3.76746e-22 -0.00946131 	0.0162768 	-7.32627e-22 -0.00936682 	0.0164726 	-9.1557e-22 -0.00927546 	0.0166629 	-1.04672e-21 -0.0091883 	0.0168103 	-9.02822e-22 -0.00910346 	0.0169604 	-7.6032e-22 -0.00900749 	0.0171379 	-5.96243e-22 -0.00876966 	0.0175583 	-5.73229e-22 -0.0085507 	0.0180021 	-5.4598e-22 -0.00834987 	0.0184682 	-5.14696e-22 -0.00821722 	0.0188056 	-3.06545e-22 -0.00812724 	0.0190664 	-4.79374e-23 -0.00772872 	0.019741 	3.73448e-22 -0.0073611 	0.0204644 	7.99281e-22 -0.00711937 	0.0209766 	1.16199e-21 -0.00705561 	0.0214468 	1.73697e-21 -0.00700875 	0.0218881 	2.26388e-21 -0.00671055 	0.0226303 	3.10392e-21 -0.0065223 	0.0231271 	2.68552e-21 -0.00637068 	0.0235708 	1.93894e-21 -0.00622907 	0.0240336 	1.20945e-21 -0.00601682 	0.0248064 	6.34159e-23 -0.00601181 	0.0248273 	4.81911e-23 -0.00600681 	0.0248481 	3.29698e-23 -0.00600183 	0.0248691 	1.77521e-23 -0.00599686 	0.02489 	2.53793e-24 -0.00600154 	0.0248931 	2.16352e-24 -0.00582727 	0.0254638 	-1.98269e-22 -0.00568071 	0.0260631 	-4.15279e-22 -0.00554624 	0.0266884 	-6.3585e-22 -0.00542307 	0.0273379 	-8.59733e-22 -0.00558694 	0.0274381 	-1.08082e-21 -0.00517641 	0.0281579 	-7.43866e-22 -0.0049448 	0.0289028 	6.07489e-23 -0.00484587 	0.0296605 	1.21667e-21 -0.00499001 	0.0299242 	2.133e-21 -0.00520284 	0.0300047 	2.94474e-21 -0.00478201 	0.0308785 	1.78212e-21 -0.00437798 	0.0318155 	6.34476e-22 -0.00432361 	0.0323968 	9.77965e-25 -0.00458874 	0.0325061 	2.63857e-24 -0.00484054 	0.0325842 	4.25099e-24 -0.004409 	0.0336252 	2.06309e-24 -0.00401067 	0.0346946 	0 -0.00396343 	0.0349677 	0 -0.00420463 	0.0351034 	-3.30742e-21 -0.00449568 	0.0351774 	-7.23531e-21 -0.00405325 	0.0363996 	-2.14551e-21 -0.00384401 	0.0371085 	0 -0.00380142 	0.0374207 	0 -0.00382956 	0.037697 	-1.26839e-24 -0.00416096 	0.0377652 	-8.09058e-24 -0.00372726 	0.039129 	0 -0.00368848 	0.0394727 	0 -0.00365123 	0.0398276 	0 -0.00361546 	0.0401933 	0 -0.00383795 	0.0403529 	2.02809e-21 -0.00357604 	0.0413709 	2.20837e-37 -0.00354431 	0.0417621 	6.84046e-37 -0.00351399 	0.0421643 	1.14665e-36 -0.00348505 	0.0425771 	1.60866e-36 -0.00352656 	0.0429302 	2.13011e-36 -0.00345845 	0.0432742 	2.32599e-36 -0.00345051 	0.0434292 	2.09152e-36 -0.00344273 	0.0435855 	1.85752e-36 -0.00343511 	0.0437431 	1.62401e-36 -0.00342654 	0.0439255 	1.35649e-36 -0.00341287 	0.0442103 	1.06479e-36 -0.00339971 	0.0444991 	7.73295e-37 -0.00338704 	0.0447919 	4.81997e-37 -0.00337486 	0.0450886 	1.90894e-37 -0.00342612 	0.0450031 	3.70729e-39 -0.00333112 	0.0456349 	-2.86643e-37 -0.00332359 	0.046139 	-6.81774e-37 -0.00331708 	0.0466516 	-1.07734e-36 -0.00331156 	0.0471724 	-1.47333e-36 -0.003474 	0.0466179 	-1.86872e-36 -0.00324688 	0.0476036 	-1.41179e-36 -0.00326339 	0.0481898 	-9.57339e-37 -0.00328048 	0.0487808 	-5.0308e-37 -0.00329813 	0.0493765 	-4.90061e-38 -0.00359463 	0.0480561 	0 -0.0032182 	0.0494746 	0 -0.00326245 	0.0501905 	0 -0.00331799 	0.0508846 	0 -0.00344216 	0.0510639 	0 -0.00382461 	0.0492732 	0 -0.00342028 	0.0509251 	0 -0.00333571 	0.052113 	0 -0.00345479 	0.0529517 	0 -0.00375494 	0.0522617 	0 -0.00420806 	0.0501346 	0 -0.00377467 	0.0521003 	0 -0.00349841 	0.0539684 	0 -0.00372339 	0.0550217 	0 -0.00424701 	0.0530584 	0 -0.00479517 	0.0504394 	0 -0.00434024 	0.0528715 	0 -0.00390558 	0.0555251 	0 -0.00422154 	0.0561349 	0 -0.00493006 	0.0530588 	0 -0.00559576 	0.0496637 	0 -0.00515079 	0.0528635 	0 -0.00473818 	0.056362 	0 -0.00482686 	0.0556188 	0 -0.00568657 	0.0514179 	0 -0.00646502 	0.0467283 	0 -0.00611637 	0.0513035 	0 -0.00581278 	0.0550193 	0 -0.00547642 	0.0518356 	0 -0.00601892 	0.046432 	0 -0.00681155 	0.0395515 	0 -0.00674693 	0.0467589 	0 -0.00621212 	0.0449837 	0 -0.0054785 	0.0396713 	0 -0.00474487 	0.0343589 	0 -0.00509554 	0.0244194 	0 -0.00524945 	0.0313106 	0 -0.00418713 	0.0249743 	0 -0.0031248 	0.018638 	0 -0.00206247 	0.0123017 	0 0 	0 	0