# vtk DataFile Version 2.0
track0
ASCII
DATASET POLYDATA
POINTS 34224 float
0.05 8.57988e-20 2.57396e-18
0.05 0.00217391 -1.05592e-17
0.05 0.00217391 -1.05592e-17
0.05 0.00217391 -1.05592e-17
0.05 0.00217391 -1.05592e-17
0.05 0.00217391 -1.05592e-17
0.05 0.00217391 -1.38778e-17
0.0493333 0.00217651 -6.66134e-18
0.0486667 0.00217979 -8.1879e-18
0.048 0.00218433 -1.09687e-17
0.0473334 0.0021918 -6.42563e-18
0.0466667 0.00220185 -1.11022e-17
0.046 0.00221447 -1.80411e-18
0.0453333 0.00222628 -2.63676e-18
0.0446666 0.00223851 -6.19479e-18
0.044 0.00225355 -4.41727e-18
0.0433333 0.00227201 -6.93889e-18
0.0426667 0.00229438 -3.19189e-18
0.0419999 0.00231463 1.17916e-18
0.0413332 0.00233503 -1.19002e-18
0.0406666 0.0023582 -5.31497e-18
0.04 0.00238525 -6.93889e-18
0.0393333 0.00241746 2.77556e-19
0.0386665 0.00244644 -9.01809e-19
0.0379997 0.00247609 -9.42321e-19
0.0373331 0.0025086 1.30188e-18
0.0366667 0.00254484 2.77556e-18
0.036 0.00258743 2.35922e-18
0.0353331 0.00262588 6.03935e-18
0.0346663 0.00266652 7.35003e-18
0.0339997 0.00271024 9.10601e-18
0.0333333 0.00275716 1.11022e-17
0.0326667 0.00281122 1.01308e-17
0.0319997 0.00286207 1.29762e-17
0.0313331 0.00291627 1.26277e-17
0.0306667 0.00297393 1.1614e-17
0.03 0.00303528 1.80411e-17
0.0294106 0.00309489 1.48594e-17
0.0288211 0.00315418 5.08571e-18
0.028232 0.00321651 -8.68999e-18
0.0276432 0.00328197 6.39794e-18
0.0272034 0.00333333 9.66739e-18
0.027096 0.00334633 1.0787e-17
0.0269887 0.00335945 4.9678e-18
0.0268814 0.00337267 1.02508e-17
0.0267741 0.00338602 1.13706e-17
0.0266667 0.0033995 1.40431e-17
0.026 0.00348528 1.0094e-17
0.0253338 0.0035746 3.37824e-18
0.0246682 0.00366867 9.91998e-18
0.0240034 0.00376769 1.65964e-18
0.0233333 0.00387279 3.26497e-18
0.0226667 0.0039953 3.75483e-18
0.0219994 0.00411462 4.25002e-18
0.0213332 0.00423979 5.41319e-18
0.0206682 0.00437106 3.24038e-18
0.02 0.00451824 1.20996e-17
0.0193333 0.00469246 9.66493e-18
0.0186665 0.00486588 7.41165e-18
0.0179994 0.00503845 5.95074e-18
0.0173356 0.00522324 1.11395e-17
0.0166667 0.00543893 1.11022e-17
0.0160049 0.00568447 1.90003e-17
0.0153441 0.00593259 1.61252e-17
0.0146886 0.00619426 1.09785e-17
0.0140417 0.00647663 1.57055e-17
0.0136441 0.00666667 2.30748e-17
0.0135819 0.0066981 2.59538e-17
0.0135199 0.0067298 2.0506e-17
0.013458 0.00676176 2.75479e-17
0.0133963 0.00679397 2.24851e-17
0.0133333 0.00682726 2.1937e-17
0.0126667 0.00718505 2.13412e-17
0.012013 0.00756613 2.69516e-17
0.0113751 0.00797291 2.40778e-17
0.0107546 0.00840596 2.52482e-17
0.01 0.00899496 2.498e-17
0.00977622 0.00919596 1.99879e-17
0.00955497 0.00939976 1.63772e-17
0.00933631 0.00960633 1.84649e-17
0.0091203 0.00981566 2.07009e-17
0.0089349 0.01 1.80411e-17
0.00848126 0.0104612 2.19688e-17
0.00805024 0.0109436 2.18442e-17
0.00764313 0.0114464 9.80312e-18
0.00725849 0.0119665 1.65009e-17
0.00666667 0.012836 1.38778e-17
0.00660739 0.0129355 8.22795e-18
0.00654858 0.0130352 3.96669e-18
0.00649025 0.0131353 -2.93785e-19
0.0064324 0.0132356 5.94125e-18
0.00637623 0.0133333 6.93889e-18
0.00599443 0.014 1.41553e-17
0.00564937 0.0146864 9.5428e-18
0.00533434 0.0153871 1.22844e-17
0.00504528 0.0160989 1.37741e-17
0.00481657 0.0166667 1.46339e-17
0.00454959 0.0173333 1.20588e-17
0.00432056 0.018014 1.26185e-17
0.00411748 0.0187028 1.85128e-17
0.00392444 0.0193945 1.29891e-17
0.00376443 0.02 1.0958e-17
0.00367821 0.0203186 1.18195e-17
0.00360014 0.0206394 1.31105e-17
0.00352449 0.0209607 7.52655e-18
0.00345082 0.0212825 1.16545e-17
0.00333333 0.0218101 4.16334e-18
0.00326852 0.0221148 4.0554e-18
0.00320523 0.0224197 5.33778e-18
0.00314341 0.022725 3.84705e-18
0.00308302 0.0230305 1.20732e-17
0.00302461 0.0233333 1.11022e-17
0.00289277 0.024 9.99201e-18
0.00277365 0.0246691 1.68575e-17
0.00266146 0.0253393 1.20867e-17
0.00255568 0.0260106 1.26291e-17
0.00245564 0.0266667 1.38778e-17
0.00234323 0.0273333 1.13798e-17
0.00224835 0.0280027 1.30519e-17
0.00216567 0.0286737 1.40149e-17
0.00208812 0.0293453 1.14412e-17
0.00200422 0.03 1.11022e-17
0.0019066 0.0306667 6.52256e-18
0.00182757 0.0313358 9.57158e-18
0.00176628 0.0320068 1.02425e-17
0.00170698 0.0326779 8.12943e-18
0.00163598 0.0333333 1.32954e-17
0.00155004 0.034 9.66552e-18
0.00148402 0.0346689 3.73325e-18
0.0014365 0.0353394 4.86572e-18
0.00139006 0.03601 8.85415e-18
0.00133002 0.0366667 7.49953e-18
0.00125359 0.0373333 1.07493e-17
0.00119875 0.0380021 9.59517e-18
0.00115983 0.038672 1.08851e-17
0.0011209 0.0393419 1.32608e-17
0.00107067 0.04 4.46199e-18
0.00100221 0.0406667 4.57599e-18
0.000957465 0.0413353 6.8743e-18
0.000922741 0.0420046 2.21276e-18
0.000888016 0.0426739 4.19704e-18
0.000847061 0.0433333 -1.41064e-18
0.000785407 0.044 1.46759e-18
0.000750288 0.0446686 2.80279e-19
0.000719146 0.0453374 3.60149e-18
0.000688004 0.0460062 -2.1441e-19
0.000656306 0.0466667 3.76426e-18
0.000600515 0.0473333 -1.53782e-18
0.000572447 0.0480017 1.96392e-18
0.000544379 0.0486701 -1.94869e-18
0.000516312 0.0493386 -5.83737e-18
0.000488537 0.05 -1.0528e-17
0.000437774 0.0506667 -6.21077e-18
0.000412305 0.0513348 -5.40267e-18
0.000386836 0.0520029 -9.92743e-18
0.000361367 0.052671 -3.06033e-18
0.000336118 0.0533333 -5.59749e-19
0.000289549 0.054 6.28026e-19
0.000266168 0.0546679 3.91433e-19
0.000242786 0.0553358 -5.41639e-18
0.000219405 0.0560036 -3.75307e-18
0.000196193 0.0566667 -1.1429e-17
0.000156955 0.0572706 -5.15364e-18
0.000137099 0.0578755 -5.15402e-18
0.000117244 0.0584805 -1.11738e-17
9.73883e-05 0.0590854 -6.80351e-18
6.73667e-05 0.06 -2.09289e-17
5.38934e-05 0.0602179 -8.92085e-18
4.69362e-05 0.0604362 -1.28826e-17
3.9979e-05 0.0606544 -1.97934e-17
3.30218e-05 0.0608727 -2.08062e-17
0 0.0619085 -1.67091e-17
0.05 0.00434783 5.94331e-18
0.0493333 0.00435086 4.55049e-18
0.0486667 0.00435647 3.15335e-18
0.0480001 0.00436418 2.28974e-18
0.0473334 0.00437346 4.78508e-18
0.0466667 0.00438561 9.34984e-18
0.046 0.00440178 1.62618e-17
0.0453334 0.00441926 1.62327e-17
0.0446668 0.00443811 1.44336e-17
0.0440002 0.0044585 1.39466e-17
0.0433333 0.00448277 1.59835e-17
0.0426667 0.00451223 1.72206e-17
0.042 0.00454188 2.08875e-17
0.0413334 0.00457199 2.06778e-17
0.0406668 0.00460366 2.40715e-17
0.04 0.00464092 1.41288e-17
0.0393333 0.00468461 1.50969e-17
0.0386666 0.00472759 1.12089e-17
0.0379999 0.00476986 1.06672e-17
0.0373332 0.00481436 1.03769e-17
0.0366667 0.00486633 1.55604e-17
0.036 0.00492611 1.09732e-17
0.0353332 0.00498451 5.18545e-18
0.0346663 0.00504152 3.96286e-18
0.0339997 0.00510213 3.54265e-18
0.0333333 0.00517161 1.38778e-17
0.0326667 0.00525043 9.29812e-18
0.0319998 0.0053275 1.0964e-17
0.0313327 0.00540278 8.7619e-18
0.0306663 0.00548394 1.02963e-17
0.03 0.00557512 0
0.0293333 0.00567739 -4.16334e-19
0.0286664 0.00577785 3.95563e-18
0.0279999 0.00588155 5.77011e-18
0.0273347 0.00599247 4.28869e-19
0.0266667 0.00611179 6.93889e-18
0.0261066 0.00622277 5.09601e-18
0.0255466 0.0063339 8.1103e-18
0.0249878 0.00645092 6.55924e-18
0.0244303 0.00657411 2.84859e-19
0.0240333 0.00666667 4.38549e-18
0.0238933 0.00670058 8.78195e-18
0.0237534 0.00673494 6.88224e-19
0.0236136 0.00676975 -4.63014e-18
0.023474 0.00680501 -9.94869e-18
0.0233333 0.00684103 1.09741e-18
0.0226667 0.00701599 -3.35731e-18
0.0220025 0.0072003 -5.05202e-18
0.0213415 0.00739549 -5.32257e-18
0.0206839 0.00760207 -1.0164e-19
0.02 0.00783339 5.34308e-18
0.0193333 0.00808419 2.6736e-18
0.0186708 0.00834574 5.62019e-19
0.0180129 0.00861869 1.9534e-18
0.0173624 0.00890883 1.12327e-18
0.0166667 0.0092484 0
0.0163868 0.00939872 9.21753e-19
0.0161083 0.00955146 6.48098e-18
0.0158313 0.00970693 3.47285e-18
0.0155563 0.00986599 5.31853e-18
0.0153316 0.01 1.11022e-17
0.0149319 0.0102444 8.61348e-18
0.0145382 0.0104981 8.05491e-18
0.0141507 0.0107613 4.88382e-18
0.0137698 0.011034 5.85237e-18
0.0133333 0.0113657 2.23588e-18
0.0128505 0.0117593 3.35928e-18
0.012379 0.0121662 -2.01527e-19
0.0119193 0.0125865 7.93643e-19
0.0114721 0.0130201 1.02567e-17
0.0111677 0.0133333 1.05363e-17
0.0109342 0.0135837 8.01273e-18
0.0107062 0.0138392 -1.17578e-19
0.0104838 0.0140996 4.28677e-18
0.0102669 0.0143646 3.35451e-18
0.01 0.0147044 3.30021e-18
0.00970724 0.0150969 5.06358e-18
0.00942361 0.015496 1.81568e-18
0.00914904 0.0159013 2.80492e-18
0.00888309 0.0163124 4.63558e-18
0.0086617 0.0166667 1.38778e-18
0.00826269 0.0173238 -2.9959e-21
0.00789392 0.0179984 -2.2559e-18
0.00755357 0.0186877 -5.35969e-18
0.00723279 0.0193864 -8.47162e-18
0.00697058 0.02 -1.45064e-17
0.00690979 0.0201491 -1.74338e-17
0.00685038 0.0202987 -1.3773e-17
0.00679204 0.0204487 -1.71557e-17
0.00673456 0.0205991 -1.02176e-17
0.00666667 0.0207798 -2.09505e-17
0.00647857 0.0212905 -1.65522e-17
0.00629916 0.0218043 -1.17142e-17
0.006128 0.0223209 -1.33871e-17
0.00596463 0.0228401 -1.0627e-17
0.00581438 0.0233333 -1.249e-17
0.0056098 0.024 -9.4369e-18
0.00542655 0.0246728 -8.12879e-18
0.00526193 0.0253505 -8.06898e-18
0.00510636 0.0260303 -1.14528e-17
0.00495661 0.0266667 -1.72821e-17
0.00479592 0.0273333 -1.56019e-17
0.00465518 0.0280045 -1.48269e-17
0.00453269 0.0286792 -1.3413e-17
0.00441395 0.0293546 -1.21121e-17
0.00429685 0.03 -1.82579e-17
0.0041705 0.0306667 -1.59658e-17
0.00406253 0.0313366 -1.28663e-17
0.00396096 0.0320074 -1.44453e-17
0.00386263 0.0326788 -1.14e-17
0.00376987 0.0333333 -2.15437e-17
0.00368256 0.0339219 -1.46935e-17
0.00360471 0.0345118 -1.58367e-17
0.00352915 0.035102 -1.13588e-17
0.0034558 0.0356924 -8.78589e-18
0.00333837 0.0366667 -2.22128e-17
0.00333736 0.0366754 -1.49812e-17
0.00333635 0.0366842 -1.9459e-17
0.00333535 0.036693 -1.82175e-17
0.00333435 0.0367017 -1.91987e-17
0.00333333 0.0367106 -1.9502e-17
0.00325804 0.0373685 -1.01893e-17
0.0031853 0.0380266 -6.08118e-18
0.00311503 0.0386851 -1.75133e-18
0.00304713 0.0393438 -8.8033e-18
0.00298176 0.04 0
0.00291331 0.0406667 -4.16334e-19
0.00285105 0.0413339 4.71744e-18
0.00279104 0.0420014 4.84684e-19
0.0027332 0.0426691 3.16391e-18
0.00267771 0.0433333 -6.93889e-18
0.00261605 0.044 -1.80411e-18
0.00256321 0.0446674 -9.1606e-18
0.00251291 0.045335 -4.83572e-18
[...]
POINT_DATA 34224
 FIELD attributes 1
U 3 34224 float
-5.15356e-19 	-7.09625e-22 	0
-0.0120124 	4.67239e-05 	0 -0.0120124 	4.67239e-05 	0 -0.0120124 	4.67239e-05 	0 -0.0120124 	4.67239e-05 	0 -0.0120124 	4.67239e-05 	0 -0.0120124 	4.67239e-05 	0 -0.012321 	6.06191e-05 	0 -0.0125373 	8.54173e-05 	-8.98841e-25 -0.012498 	0.000140004 	-4.25455e-24 -0.0122639 	0.000184973 	-7.62476e-24 -0.0119623 	0.000226385 	-1.10083e-23 -0.0122643 	0.000217331 	4.21969e-22 -0.0124342 	0.000228065 	7.07238e-22 -0.0123508 	0.000278586 	6.97048e-22 -0.0121364 	0.000336052 	4.16682e-22 -0.0118563 	0.000397828 	-1.86757e-23 -0.0121415 	0.000368807 	2.62957e-22 -0.012235 	0.000374324 	4.3825e-22 -0.0121156 	0.000421184 	4.87634e-22 -0.0119312 	0.000484078 	4.05609e-22 -0.0116812 	0.000564424 	1.82336e-22 -0.0119411 	0.000518984 	1.33837e-22 -0.0119333 	0.000530627 	1.37798e-22 -0.0117879 	0.000574801 	1.71307e-22 -0.0116306 	0.000632615 	2.17468e-22 -0.0114173 	0.000729343 	3.00417e-22 -0.0116454 	0.000671398 	2.26745e-22 -0.0115182 	0.000701998 	1.76846e-22 -0.0113571 	0.000744892 	1.30374e-22 -0.0112083 	0.000789105 	8.44013e-23 -0.0110401 	0.00089531 	1.06965e-22 -0.0111596 	0.000850963 	5.61704e-23 -0.0109812 	0.00089264 	3.58088e-23 -0.0108146 	0.0009359 	1.57644e-23 -0.0106604 	0.000980809 	-3.94875e-24 -0.0105301 	0.00106497 	3.7581e-24 -0.0105078 	0.00105707 	-2.15773e-23 -0.0103523 	0.00109514 	-1.54867e-23 -0.0102061 	0.00113474 	-9.07281e-24 -0.0100697 	0.00117593 	-2.32342e-24 -0.00997517 	0.00120794 	2.98108e-24 -0.00995382 	0.00121615 	4.35758e-24 -0.00993282 	0.00122442 	5.74664e-24 -0.00991218 	0.00123275 	7.1483e-24 -0.0098919 	0.00124114 	8.56264e-24 -0.00984757 	0.00126713 	3.62722e-24 -0.00966662 	0.00129599 	3.36203e-24 -0.00950513 	0.00134347 	4.16966e-24 -0.00935603 	0.00139347 	4.96047e-24 -0.00921984 	0.0014461 	5.73369e-24 -0.00892474 	0.00164014 	2.91942e-23 -0.008675 	0.00155122 	2.23449e-22 -0.00853217 	0.00160327 	2.6358e-22 -0.00840168 	0.00165839 	3.05601e-22 -0.0081887 	0.00180361 	2.58854e-22 -0.00789065 	0.00206197 	1.07745e-22 -0.00766699 	0.00199386 	2.80306e-22 -0.00744179 	0.00192509 	4.52855e-22 -0.00721843 	0.0020094 	4.63772e-22 -0.00697398 	0.00224884 	3.14649e-22 -0.00676579 	0.00251052 	1.66501e-22 -0.00658467 	0.00247242 	3.19319e-22 -0.00633452 	0.0025286 	3.4375e-22 -0.00606504 	0.00264734 	2.96362e-22 -0.00582733 	0.00278501 	2.46064e-22 -0.00570046 	0.00288361 	2.12735e-22 -0.0056786 	0.00290243 	2.07509e-22 -0.00565714 	0.00292151 	2.02248e-22 -0.00563606 	0.00294084 	1.96953e-22 -0.00560759 	0.00296502 	1.96539e-22 -0.00557533 	0.00299226 	1.98393e-22 -0.00528187 	0.00307942 	1.38317e-22 -0.00505604 	0.00322383 	8.09373e-23 -0.00485829 	0.00339097 	2.18199e-23 -0.0046246 	0.00360953 	2.25504e-23 -0.00437114 	0.00392633 	2.70002e-23 -0.00431017 	0.00397023 	1.55884e-23 -0.00425285 	0.00401758 	4.16975e-24 -0.00419661 	0.00406692 	2.37999e-23 -0.00414259 	0.00411891 	6.12913e-23 -0.00409892 	0.00416716 	9.38809e-23 -0.00386552 	0.00432655 	9.32152e-23 -0.00365647 	0.00451547 	8.86841e-23 -0.00347749 	0.00470256 	8.02814e-23 -0.0033262 	0.00488691 	6.83906e-23 -0.00311403 	0.00522461 	4.39991e-23 -0.00309731 	0.0052537 	7.18112e-23 -0.00308104 	0.00528341 	9.93036e-23 -0.00306523 	0.00531373 	1.26478e-22 -0.00306443 	0.00533462 	6.91359e-23 -0.00306605 	0.00535364 	2.04407e-25 -0.00276288 	0.00549599 	-4.69667e-22 -0.00260049 	0.00578412 	-7.54727e-22 -0.0024835 	0.00611554 	-9.95944e-22 -0.00255198 	0.0063352 	-7.84836e-22 -0.0026082 	0.00651292 	-6.16206e-22 -0.00228848 	0.00680071 	-4.13837e-22 -0.00207996 	0.0070551 	-2.42247e-22 -0.00201148 	0.00720747 	-1.24436e-22 -0.00194965 	0.00737812 	-3.49259e-24 -0.0020727 	0.00766007 	-1.57297e-23 -0.00191996 	0.00788776 	-9.5732e-25 -0.00187988 	0.00798418 	0 -0.00184905 	0.00807611 	0 -0.00181974 	0.00817298 	0 -0.00177419 	0.00833945 	0 -0.00175058 	0.00843453 	0 -0.00172812 	0.00853354 	0 -0.0017068 	0.00863637 	0 -0.00168657 	0.00874291 	0 -0.00172252 	0.00870974 	0 -0.00157112 	0.00882497 	0 -0.00151955 	0.00907795 	0 -0.00147401 	0.00935411 	0 -0.00145981 	0.00957411 	0 -0.00158387 	0.00939317 	0 -0.00134891 	0.00951651 	0 -0.00120329 	0.00976593 	0 -0.00117087 	0.0101396 	0 -0.00128732 	0.0100446 	0 -0.00143256 	0.00978302 	0 -0.00118057 	0.00999643 	0 -0.0009412 	0.0103032 	0 -0.000927974 	0.0105037 	0 -0.00110808 	0.0102284 	0 -0.00127376 	0.00988043 	0 -0.00100623 	0.0101953 	0 -0.000753527 	0.0106334 	0 -0.000725301 	0.0104727 	0 -0.000926631 	0.0101342 	0 -0.00111161 	0.00969668 	0 -0.000830127 	0.0101233 	0 -0.000610615 	0.0105087 	0 -0.000590788 	0.0101675 	0 -0.000745084 	0.00976055 	0 -0.000948174 	0.00923386 	0 -0.000654502 	0.00978125 	0 -0.000513222 	0.00989166 	0 -0.000494609 	0.00953292 	0 -0.000565482 	0.00910522 	0 -0.000785671 	0.00849551 	0 -0.000481725 	0.009171 	0 -0.000418199 	0.00898107 	0 -0.000400841 	0.0086083 	0 -0.000394608 	0.00822243 	0 -0.000631287 	0.00754344 	0 -0.000344698 	0.00820872 	0 -0.000328587 	0.00782505 	0 -0.000312476 	0.00744138 	0 -0.000296365 	0.00705771 	0 -0.000483847 	0.00635432 	0 -0.000257291 	0.00674935 	0 -0.000242322 	0.00635668 	0 -0.000227353 	0.00596402 	0 -0.000212384 	0.00557135 	0 -0.00034188 	0.00489427 	2.45628e-37 -0.000174442 	0.00498285 	0 -0.000160356 	0.00458048 	0 -0.000146269 	0.00417811 	0 -0.000132183 	0.00377573 	0 -0.000205935 	0.00316976 	2.46694e-40 -9.815e-05 	0.00299022 	0 -8.57336e-05 	0.00261194 	0 -7.33171e-05 	0.00223366 	0 -6.09007e-05 	0.00185539 	0 -7.41503e-05 	0.00119939 	-4.91454e-38 -3.60337e-05 	0.00113033 	0 -3.13821e-05 	0.000984417 	0 -2.67304e-05 	0.000838499 	0 -2.20787e-05 	0.000692582 	0 0 	0 	0
-0.0232478 	0.000105632 	0 -0.0234403 	0.000197597 	0 -0.0235335 	0.00027213 	-1.55075e-24 -0.023511 	0.000327036 	-4.84508e-24 -0.0233371 	0.000425308 	-4.00784e-23 -0.0230474 	0.000559234 	-1.01447e-22 -0.023174 	0.000607437 	-4.98743e-22 -0.0232349 	0.000657134 	-7.49982e-22 -0.0231859 	0.000709104 	-7.64785e-22 -0.0229364 	0.000834876 	-5.33626e-22 -0.0226004 	0.000998804 	-1.79566e-22 -0.0226627 	0.00100794 	-3.77763e-22 -0.022699 	0.00102511 	-5.29054e-22 -0.0226277 	0.00107508 	-4.87923e-22 -0.0222835 	0.00124507 	-2.19895e-22 -0.021919 	0.00143666 	8.32442e-23 -0.0219223 	0.00141328 	4.87933e-22 -0.0219224 	0.00138955 	8.92744e-22 -0.0217958 	0.00145526 	9.16233e-22 -0.0213916 	0.00166765 	5.65111e-22 -0.0210169 	0.00188456 	2.13128e-22 -0.0209693 	0.00183666 	3.31857e-22 -0.0209163 	0.00178792 	4.50771e-22 -0.0206757 	0.00188009 	4.23313e-22 -0.0202767 	0.00211401 	2.47247e-22 -0.0199095 	0.00235399 	7.0956e-23 -0.0198211 	0.00229062 	7.48173e-23 -0.0197263 	0.002226 	7.87362e-23 -0.0193228 	0.00235346 	8.58443e-23 -0.0189465 	0.00259278 	6.84814e-23 -0.0186031 	0.00285358 	4.80747e-23 -0.0184847 	0.00278437 	1.09591e-22 -0.0181966 	0.00283158 	1.28311e-22 -0.017799 	0.00296753 	1.15755e-22 -0.0174232 	0.00311219 	1.02099e-22 -0.0171173 	0.0033918 	3.91313e-23 -0.0169655 	0.00336675 	3.72124e-23 -0.016638 	0.00348401 	5.86491e-23 -0.0163257 	0.00360738 	8.03775e-23 -0.0160294 	0.00373715 	1.0241e-22 -0.0158298 	0.0038346 	1.18367e-22 -0.0157626 	0.0038718 	1.20322e-22 -0.0156967 	0.00390949 	1.2225e-22 -0.0156319 	0.00394766 	1.24149e-22 -0.0155683 	0.00398633 	1.2602e-22 -0.015457 	0.00405669 	1.30304e-22 -0.0150681 	0.00418153 	1.21594e-22 -0.0147305 	0.00434952 	1.2592e-22 -0.0144169 	0.0045293 	1.28779e-22 -0.0140711 	0.0047591 	1.40465e-22 -0.0135929 	0.00511361 	1.77558e-22 -0.0132148 	0.00521714 	1.0237e-22 -0.0128598 	0.00533507 	2.66401e-23 -0.0124305 	0.00554432 	2.67867e-24 -0.0120512 	0.00588184 	3.01992e-23 -0.0116833 	0.00627586 	5.7399e-23 -0.0115615 	0.00634024 	2.45482e-23 -0.0114312 	0.00641567 	0 -0.011267 	0.00651776 	0 -0.0111096 	0.00662479 	0 -0.0109856 	0.00671707 	0 -0.0107334 	0.00691714 	0 -0.0104979 	0.00713139 	0 -0.0102799 	0.00736003 	0 -0.0100133 	0.00760908 	0 -0.00971791 	0.00792059 	0 -0.0094316 	0.00814046 	0 -0.00917236 	0.00838528 	0 -0.00890244 	0.00863327 	0 -0.00864893 	0.00889987 	0 -0.00849154 	0.00910471 	0 -0.00831622 	0.00931951 	0 -0.00815159 	0.00954545 	0 -0.00798611 	0.00975619 	-1.11723e-24 -0.00782276 	0.00995882 	-3.02321e-24 -0.00762926 	0.0102272 	-5.42332e-24 -0.00743692 	0.0104642 	-5.81764e-24 -0.00726094 	0.0107199 	-6.27432e-24 -0.00710453 	0.010982 	-1.6463e-23 -0.0069875 	0.0111798 	-9.34897e-23 -0.00689714 	0.0113593 	-1.59017e-22 -0.00648072 	0.0118549 	-2.56269e-22 -0.00611633 	0.0123883 	-3.3512e-22 -0.00586295 	0.0127698 	-2.6565e-22 -0.00563699 	0.0131904 	-1.96433e-22 -0.00556383 	0.0136458 	-1.63975e-22 -0.00548614 	0.0138149 	-1.37745e-22 -0.00542347 	0.0139498 	-1.18298e-22 -0.00537295 	0.0140568 	-1.04359e-22 -0.00532379 	0.014166 	-9.04695e-23 -0.00526646 	0.0142994 	-7.38776e-23 -0.00511336 	0.0146447 	-4.03972e-23 -0.00497387 	0.0150131 	-6.8281e-24 -0.00484727 	0.0154031 	2.6816e-23 -0.00479144 	0.0157297 	5.2904e-23 -0.00487078 	0.0158722 	6.13909e-23 -0.0044524 	0.0163478 	3.98328e-23 -0.00410649 	0.0169037 	6.38333e-23 -0.00401328 	0.0175367 	2.78404e-22 -0.00418631 	0.0177915 	5.16713e-22 -0.00434275 	0.0180168 	7.37951e-22 -0.00391443 	0.0186665 	3.61829e-22 -0.00351781 	0.0193776 	0 -0.00344679 	0.019607 	0 -0.00360954 	0.0198924 	3.43022e-25 -0.00382092 	0.0201612 	7.59351e-25 -0.00338507 	0.0210025 	1.34375e-25 -0.00323947 	0.0213968 	0 -0.0031748 	0.0216754 	0 -0.00311359 	0.0219705 	0 -0.00330388 	0.0222722 	-1.82221e-22 -0.00302838 	0.0229464 	0 -0.00297308 	0.0232211 	0 -0.00292041 	0.0235098 	0 -0.0028703 	0.0238121 	0 -0.00279471 	0.0243315 	8.32477e-24 -0.0027913 	0.0243423 	0 -0.00279051 	0.0243469 	0 -0.00278972 	0.0243515 	0 -0.00278893 	0.024356 	0 -0.00278814 	0.0243607 	0 -0.00272964 	0.0246999 	0 -0.00267427 	0.0250578 	0 -0.0026219 	0.0254336 	0 -0.00257241 	0.0258268 	0 -0.00264063 	0.025716 	0 -0.00244352 	0.0261889 	0 -0.00239199 	0.0266083 	0 -0.00234335 	0.0270467 	0 -0.00229747 	0.0275033 	0 -0.00248364 	0.0268558 	0 -0.0021797 	0.0275313 	0 -0.00211177 	0.028028 	0 -0.0020677 	0.0285251 	0 -0.00210203 	0.0286428 	0 -0.0023237 	0.0277666 	0 -0.00201145 	0.0285758 	0 -0.00183804 	0.0292799 	0 -0.00179932 	0.0298362 	0 -0.001933 	0.029456 	0 -0.00216628 	0.0284495 	0 -0.00184755 	0.0293963 	0 -0.00157819 	0.0303779 	6.9559e-38 -0.0015468 	0.0309942 	5.32147e-37 -0.0017762 	0.0300775 	9.95782e-37 -0.00202142 	0.0289381 	1.45231e-36 -0.0016976 	0.0300253 	9.31095e-37 -0.00138254 	0.0312426 	4.15933e-37 -0.00137097 	0.031671 	6.81147e-40 -0.0016392 	0.0305013 	1.48433e-39 -0.00189874 	0.0292255 	2.27454e-39 -0.0015704 	0.0304558 	1.38181e-39 -0.00125119 	0.0318316 	4.99631e-40 -0.00124351 	0.0320167 	-2.72141e-37 -0.0015323 	0.0307223 	-7.40231e-37 -0.00181164 	0.0293036 	-1.20072e-36 -0.00147822 	0.0306828 	-6.84305e-37 -0.00115457 	0.0322252 	-1.74145e-37 -0.0011486 	0.0321686 	0 -0.00146892 	0.0307428 	0 -0.00177823 	0.0291667 	0 -0.00143788 	0.0307086 	0 -0.00110852 	0.0324359 	0 -0.00109297 	0.0321082 	0 -0.00146322 	0.0305348 	0 -0.00181928 	0.0287711 	0 -0.00146946 	0.0305068 	0 -0.00116124 	0.0322043 	0 -0.00113922 	0.0315937 	0 -0.00152278 	0.0299625 	0 -0.00195101 	0.0279508 	0 -0.00159069 	0.0299482 	0 -0.00134556 	0.0311501 	0 -0.00131046 	0.0303376 	0 -0.00163163 	0.028722 	0 -0.00216685 	0.0263496 	0 -0.00180261 	0.0287513 	0 -0.0016215 	0.0290784 	0 -0.00155539 	0.0278929 	0 -0.00170472 	0.0262664 	0 -0.00238865 	0.0233393 	0 -0.0020486 	0.0264428 	0 -0.00189137 	0.0249965 	0 -0.0017499 	0.0231268 	0 -0.00160843 	0.0212571 	0 -0.00232396 	0.0176563 	0 -0.00203401 	0.0195366 	0 -0.00170993 	0.0164238 	0 -0.00138586 	0.0133111 	0 -0.00106179 	0.0101984 	0 -0.00107026 	0.00631096 	0 -0.00100785 	0.00724679 	0 -0.000800267 	0.00575421 	0 -0.000592686 	0.00426162 	0 -0.000385105 	0.00276904 	0 0 	0 	0
-0.0335951 	0.000178463 	0 -0.0335657 	0.000331264 	-4.49481e-23 -0.0334875 	0.000501293 	-1.02556e-22 -0.033424 	0.000671819 	-1.6045e-22 -0.0333753 	0.000842839 	-2.18633e-22 -0.0333075 	0.00100912 	-2.77611e-22 -0.0331945 	0.00114305 	-3.54283e-22 -0.0330496 	0.00129308 	-3.78788e-22 -0.0329171 	0.00144415 	-4.01946e-22 -0.0327971 	0.00159628 	-4.23741e-22 -0.0327888 	0.00160823 	-4.25334e-22 -0.0327636 	0.00164715 	-4.32256e-22 -0.0327392 	0.00168615 	-4.39133e-22 -0.0327157 	0.00172522 	-4.45966e-22 -0.0326931 	0.00176436 	-4.52754e-22 -0.0326558 	0.00181059 	-4.62974e-22 -0.0324391 	0.00196412 	-3.96306e-22 -0.0322296 	0.00211859 	-3.31214e-22 -0.0320348 	0.00227507 	-2.65469e-22 -0.031855 	0.00243357 	-1.99059e-22 -0.0315879 	0.00264377 	-1.41032e-22 -0.0313494 	0.0027875 	-3.29197e-22 -0.0310946 	0.00293957 	-3.26855e-22 -0.0308548 	0.00309441 	-3.26688e-22 -0.0306303 	0.00325208 	-3.28745e-22 -0.0301955 	0.00352876 	1.05788e-22 -0.0299302 	0.0036424 	-1.99206e-22 -0.0296469 	0.00379727 	-2.20194e-22 -0.0293792 	0.00395582 	-2.42499e-22 -0.029037 	0.00416755 	-1.74063e-22 -0.0285168 	0.00449369 	9.37723e-23 -0.0282077 	0.00459528 	4.51277e-23 -0.0279116 	0.00471278 	7.87238e-24 -0.0276336 	0.00488131 	1.39186e-23 -0.0270982 	0.00521385 	2.5299e-23 -0.0265872 	0.00556269 	3.65843e-23 -0.0262572 	0.00566676 	1.97826e-23 -0.0259403 	0.00577595 	2.91196e-24 -0.025422 	0.00602177 	0 -0.0249204 	0.00637637 	6.87325e-24 -0.0244436 	0.00675434 	1.38468e-23 -0.0241163 	0.00687518 	2.00388e-24 -0.0236068 	0.00712892 	0 -0.0230847 	0.00742288 	0 -0.0225941 	0.00773361 	0 -0.0221665 	0.00804036 	0 -0.0221575 	0.00804819 	0 -0.0221485 	0.00805602 	0 -0.0221396 	0.00806386 	0 -0.022129 	0.0080725 	0 -0.0221153 	0.00808277 	0 -0.0215912 	0.00839173 	0 -0.0211031 	0.00872491 	0 -0.0206487 	0.00907982 	0 -0.0201493 	0.00949294 	0 -0.0195226 	0.0100282 	0 -0.0190219 	0.010345 	0 -0.0185425 	0.0106955 	0 -0.0179549 	0.0111246 	0 -0.0174178 	0.0115909 	0 -0.0168914 	0.0121388 	0 -0.0168846 	0.0121478 	0 -0.0168778 	0.0121568 	0 -0.0168708 	0.0121658 	0 -0.0168617 	0.012175 	0 -0.0168526 	0.0121841 	0 -0.0162415 	0.0126786 	0 -0.01569 	0.0132274 	0 -0.015177 	0.0138195 	3.35948e-24 -0.0146209 	0.0144192 	2.76284e-23 -0.0139578 	0.0152867 	6.00213e-23 -0.0138981 	0.0153681 	6.01881e-23 -0.0138395 	0.0154506 	6.03723e-23 -0.0137793 	0.0155278 	6.0306e-23 -0.0137156 	0.015596 	5.98303e-23 -0.0136556 	0.0156622 	5.93905e-23 -0.0130298 	0.0163367 	1.45044e-22 -0.0124677 	0.0170843 	2.35162e-22 -0.0119545 	0.0177722 	6.81194e-23 -0.0115545 	0.018486 	-3.0382e-22 -0.0113174 	0.0190295 	-5.69905e-22 -0.0112128 	0.0192446 	-7.17743e-22 -0.0111113 	0.0194554 	-8.29934e-22 -0.011013 	0.0196196 	-7.07046e-22 -0.0109172 	0.0197866 	-5.85289e-22 -0.01081 	0.0199821 	-4.46501e-22 -0.0105168 	0.0204876 	-3.32943e-22 -0.0102483 	0.0210238 	-2.19211e-22 -0.0100034 	0.0215891 	-1.05365e-22 -0.00984358 	0.0219991 	-2.40474e-23 -0.00973371 	0.022325 	3.8544e-23 -0.00925169 	0.0231236 	2.1988e-22 -0.00880828 	0.0239827 	4.03034e-22 -0.0085116 	0.0245657 	7.14258e-22 -0.00841494 	0.0251464 	1.4096e-21 -0.00835675 	0.025694 	2.07618e-21 -0.00803259 	0.0264864 	2.84953e-21 -0.0078208 	0.0270255 	2.50897e-21 -0.00764891 	0.0275032 	1.85083e-21 -0.00748745 	0.0280004 	1.20741e-21 -0.00725228 	0.0288014 	2.30487e-22 -0.00722602 	0.0289028 	1.734e-22 -0.00720008 	0.0290048 	1.16371e-22 -0.00717448 	0.0291074 	5.93991e-23 -0.00714919 	0.0292107 	2.48437e-24 -0.00717252 	0.0292268 	2.52878e-24 -0.00689488 	0.0299165 	-1.56083e-22 -0.00670753 	0.0306485 	-3.716e-22 -0.00653575 	0.0314137 	-5.90899e-22 -0.00641064 	0.0321457 	-8.13647e-22 -0.00661057 	0.0322619 	-1.03257e-21 -0.00610732 	0.0331247 	-6.97271e-22 -0.00575353 	0.0340332 	-8.66845e-24 -0.0056189 	0.0349551 	1.24108e-21 -0.00582567 	0.0351855 	2.21283e-21 -0.0060652 	0.0352962 	3.1163e-21 -0.00555171 	0.0363406 	1.824e-21 -0.00505886 	0.0374626 	5.48897e-22 -0.00496438 	0.0380657 	9.00425e-25 -0.00525511 	0.0381992 	3.00956e-24 -0.00553116 	0.0382978 	5.05805e-24 -0.00500908 	0.0395307 	2.29923e-24 -0.004573 	0.0406798 	0 -0.00450436 	0.0409989 	0 -0.00470272 	0.0411733 	-3.1357e-21 -0.00501131 	0.0412511 	-7.60865e-21 -0.00448274 	0.0426768 	-1.88398e-21 -0.00426595 	0.0433895 	0 -0.00420091 	0.043744 	0 -0.00417165 	0.0440855 	-6.99654e-25 -0.00450927 	0.0441328 	-8.96654e-24 -0.00402992 	0.0455985 	0 -0.00396738 	0.0459721 	0 -0.00390675 	0.0463608 	0 -0.00384799 	0.0467641 	0 -0.00403317 	0.0469255 	2.12375e-21 -0.00374071 	0.0479908 	2.70068e-37 -0.00368478 	0.0483979 	7.9557e-37 -0.00363054 	0.0488197 	1.32026e-36 -0.00357798 	0.0492558 	1.84416e-36 -0.0035947 	0.0496179 	2.43593e-36 -0.00351121 	0.0499998 	2.63613e-36 -0.00349269 	0.0501726 	2.34645e-36 -0.00347441 	0.0503477 	2.05759e-36 -0.00345637 	0.0505249 	1.76953e-36 -0.00343531 	0.0507369 	1.42992e-36 -0.00340926 	0.0510029 	1.1254e-36 -0.0033837 	0.0512735 	8.21112e-37 -0.00335864 	0.0515486 	5.17049e-37 -0.00333405 	0.0518281 	2.13209e-37 -0.00336344 	0.0517703 	4.02913e-39 -0.00327009 	0.0523839 	-3.57506e-37 -0.00324065 	0.0528619 	-8.14457e-37 -0.00321235 	0.0533511 	-1.27198e-36 -0.00318515 	0.0538513 	-1.73007e-36 -0.00330095 	0.0533934 	-2.1878e-36 -0.00311958 	0.0543539 	-1.67139e-36 -0.00311769 	0.054882 	-1.15699e-36 -0.00311642 	0.0554164 	-6.42867e-37 -0.00311578 	0.0559571 	-1.29001e-37 -0.00334315 	0.054835 	0 -0.0030627 	0.0562145 	0 -0.0031062 	0.0568146 	0 -0.00314947 	0.0574124 	0 -0.00319708 	0.0579715 	0 -0.00354742 	0.0561008 	0 -0.0031976 	0.0578365 	0 -0.00324909 	0.0586944 	0 -0.00336497 	0.0593891 	0 -0.00356731 	0.0592711 	0 -0.00398624 	0.0571083 	0 -0.00362592 	0.0591057 	0 -0.00358957 	0.0605272 	0 -0.00382284 	0.0613782 	0 -0.00422551 	0.0602849 	0 -0.00474301 	0.0576763 	0 -0.00437877 	0.0600781 	0 -0.00416036 	0.0623726 	0 -0.00458155 	0.0634841 	0 -0.00523199 	0.0607543 	0 -0.00587524 	0.0574065 	0 -0.00553519 	0.06051 	0 -0.00521655 	0.0638293 	0 -0.00568515 	0.0641224 	0 -0.00651151 	0.0599071 	0 -0.00727442 	0.0552675 	0 -0.0070363 	0.059687 	0 -0.00683839 	0.0644226 	0 -0.00669453 	0.0624336 	0 -0.00759068 	0.0561788 	0 -0.00835361 	0.0492584 	0 -0.00838727 	0.0562735 	0 -0.00815166 	0.0586134 	0 -0.00741548 	0.05332 	0 -0.00707269 	0.0463358 	0 -0.00745396 	0.035572 	0 -0.00785805 	0.0462447 	0 -0.0063757 	0.0375211 	0 -0.00489336 	0.0287975 	0 -0.00341102 	0.0200739 	0 -0.00201984 	0.00885723 	0 -0.00220521 	0.013101 	0 -0.00179363 	0.0106558 	0 -0.00138204 	0.00821064 	0 -0.000970461 	0.00576545 	0 0 	0 	0