# vtk DataFile Version 2.0
track0
ASCII
DATASET POLYDATA
POINTS 41144 float
0.05 8.57988e-20 2.57396e-18
0.05 0.00217391 -1.05592e-17
0.05 0.00217391 -1.05592e-17
0.05 0.00217391 -1.05592e-17
0.05 0.00217391 -1.05592e-17
0.05 0.00217391 -1.05592e-17
0.05 0.00217391 -1.38778e-17
0.0493333 0.00217502 -7.35523e-18
0.0486667 0.00217719 -5.41234e-18
0.048 0.00218093 -7.85187e-18
0.0473334 0.00218785 -5.03128e-18
0.0466667 0.00219733 -4.16334e-18
0.046 0.00220923 -5.27356e-18
0.0453333 0.00222058 -6.8001e-18
0.0446667 0.00223256 -7.93939e-18
0.0440001 0.00224756 -1.00082e-17
0.0433333 0.00226604 -1.38778e-17
0.0426667 0.00228836 -6.66134e-18
0.0419999 0.00230872 -5.06581e-18
0.0413332 0.00232936 -7.05041e-18
0.0406666 0.00235295 -8.77567e-18
0.04 0.00238052 -1.80411e-17
0.0393333 0.00241325 -1.42941e-17
0.0386665 0.00244284 -1.8249e-17
0.0379997 0.00247318 -1.51719e-17
0.0373331 0.00250653 -1.46369e-17
0.0366667 0.00254375 -1.80411e-17
0.036 0.00258732 -1.56819e-17
0.0353331 0.00262681 -8.87925e-18
0.0346663 0.00266859 -4.42531e-18
0.0339997 0.00271358 -1.03327e-17
0.0333333 0.00276188 -6.93889e-18
0.0326667 0.00281732 -9.99201e-18
0.0319998 0.00286968 -9.57526e-18
0.0313331 0.00292547 -5.39804e-18
0.0306668 0.00298483 -9.53136e-18
0.03 0.00304796 -1.38778e-17
0.0294499 0.00310504 -1.57372e-17
0.0288998 0.00316182 -1.27394e-17
0.0283499 0.00322128 -1.68111e-17
0.0278004 0.00328351 -1.0685e-17
0.0273799 0.00333333 -1.76472e-17
0.0272373 0.00335083 -6.90131e-18
0.0270946 0.00336854 -1.55843e-17
0.026952 0.00338645 -1.45527e-17
0.0268095 0.00340457 -2.046e-17
0.0266667 0.00342293 -2.19807e-17
0.026 0.00351157 -2.3147e-17
0.0253338 0.00360343 -1.73664e-17
0.0246682 0.00370011 -1.36722e-17
0.0240034 0.0038018 -1.42998e-17
0.0233333 0.00390967 -1.06743e-17
0.0226667 0.00403605 -1.5048e-17
0.0219994 0.00415919 -1.03959e-17
0.0213331 0.00428764 -1.0892e-17
0.0206681 0.00442222 -5.90844e-18
0.02 0.00457402 1.13387e-18
0.0193333 0.0047531 -1.35021e-19
0.0186665 0.00493154 -3.21906e-18
0.0179995 0.00510929 -4.58422e-18
0.0173359 0.00529967 -6.39209e-19
0.0166667 0.0055212 2.77556e-18
0.0160624 0.00575029 -1.26613e-18
0.015459 0.00598161 -5.44536e-18
0.0148598 0.00622368 6.89661e-20
0.0142676 0.00648234 -3.26121e-18
0.0138777 0.00666667 -5.06987e-18
0.0137688 0.00672092 3.43811e-18
0.0136603 0.00677593 3.61878e-18
0.0135522 0.0068317 -3.14008e-18
0.0134445 0.00688824 -1.63763e-18
0.0133333 0.00694791 -1.01828e-17
0.0126667 0.00731495 -1.07941e-17
0.0120123 0.00770354 -1.07473e-17
0.0113733 0.00811674 -1.1988e-17
0.0107514 0.00855546 -6.03708e-18
0.01 0.00914591 -5.55112e-18
0.00980941 0.00931673 -2.29946e-18
0.00962046 0.00948936 -1.01541e-17
0.00943318 0.0096638 -1.11304e-17
0.00924763 0.00984008 -1.29817e-17
0.0090826 0.01 -1.94289e-17
0.00859941 0.0104767 -2.10137e-17
0.00813933 0.0109757 -2.42503e-17
0.00770383 0.0114963 -2.31746e-17
0.00729197 0.0120358 -1.65741e-17
0.00666667 0.0129266 -1.94289e-17
0.00661664 0.0130079 -2.64511e-17
0.00656691 0.0130895 -2.23706e-17
0.00651749 0.0131712 -2.10651e-17
0.00646838 0.0132531 -1.90987e-17
0.00642041 0.0133333 -1.94289e-17
0.00602283 0.014 -1.56819e-17
0.00566162 0.0146871 -2.16833e-17
0.00533111 0.0153894 -1.96426e-17
0.00502732 0.0161037 -2.78608e-17
0.0047904 0.0166667 -2.81057e-17
0.00451196 0.0173333 -3.20972e-17
0.00427303 0.0180152 -3.30384e-17
0.00406015 0.0187056 -3.25157e-17
0.00385812 0.0193992 -3.28548e-17
0.0036928 0.02 -4.10618e-17
0.0036209 0.0202583 -5.42212e-17
0.00355469 0.0205181 -4.94659e-17
0.00349033 0.0207784 -4.82314e-17
0.00342742 0.021039 -4.83864e-17
0.00333333 0.0214383 -4.69839e-17
0.00324725 0.0218173 -5.56545e-17
0.00316382 0.0221969 -5.02423e-17
0.00308294 0.022577 -4.89893e-17
0.00300451 0.0229577 -4.07932e-17
0.00292956 0.0233333 -4.30211e-17
0.00279205 0.024 -4.69069e-17
0.00267004 0.0246697 -5.25324e-17
0.00255576 0.0253407 -5.07932e-17
0.00244859 0.0260129 -5.2864e-17
0.00234571 0.0266667 -4.85723e-17
0.00222964 0.0273333 -4.41314e-17
0.00213243 0.028003 -4.14177e-17
0.00205087 0.0286748 -3.8218e-17
0.00197502 0.0293472 -3.97183e-17
0.00189009 0.03 -4.30211e-17
0.00179064 0.0306667 -4.20497e-17
0.00171127 0.031336 -4.52461e-17
0.00165096 0.0320074 -4.31738e-17
0.00159274 0.0326789 -4.83975e-17
0.00152235 0.0333333 -4.79976e-17
0.00143632 0.034 -4.76584e-17
0.00137176 0.0346691 -4.73603e-17
0.00132696 0.0353398 -4.6319e-17
0.00128308 0.0360105 -4.33648e-17
0.00122518 0.0366667 -3.70817e-17
0.00115033 0.0373333 -4.04265e-17
0.00109852 0.0380022 -3.84631e-17
0.00106069 0.038672 -4.21973e-17
0.00102285 0.0393418 -4.2067e-17
0.000976096 0.04 -3.90956e-17
0.000910819 0.0406667 -3.62113e-17
0.000870475 0.0413353 -3.32265e-17
0.000837796 0.0420044 -3.17874e-17
0.000805117 0.0426734 -3.77486e-17
0.000768668 0.0433333 -4.01379e-17
0.000711724 0.044 -4.35125e-17
0.000681975 0.0446684 -4.33213e-17
0.000653775 0.0453369 -4.01128e-17
0.000625575 0.0460054 -3.28994e-17
0.000597682 0.0466667 -3.98531e-17
0.000548062 0.0473333 -2.99867e-17
0.000523778 0.0480014 -2.98745e-17
0.000499493 0.0486695 -3.45604e-17
0.000475208 0.0493375 -3.77546e-17
0.000451127 0.05 -3.4058e-17
0.000407925 0.0506667 -3.07941e-17
0.000387028 0.0513344 -2.89534e-17
0.000366131 0.0520021 -3.0049e-17
0.000345234 0.0526699 -2.87324e-17
0.000324471 0.0533333 -3.3847e-17
0.000286778 0.054 -3.16332e-17
0.000268706 0.0546675 -3.29201e-17
0.000250635 0.055335 -3.21298e-17
0.000232563 0.0560025 -3.567e-17
0.00021458 0.0566667 -3.22763e-17
0.000181377 0.0573333 -3.90905e-17
0.000165456 0.0580006 -4.80141e-17
0.000149536 0.0586679 -3.45578e-17
0.000133615 0.0593352 -3.42813e-17
0.000117755 0.06 -3.07272e-17
9.42042e-05 0.0605238 -2.8428e-17
8.2683e-05 0.061048 -2.68419e-17
7.11617e-05 0.0615722 -2.10926e-17
5.96404e-05 0.0620963 -3.33284e-17
3.24522e-05 0.0633333 -2.91974e-17
2.59617e-05 0.0634856 -2.70249e-17
2.2609e-05 0.0636379 -2.65922e-17
1.92563e-05 0.0637902 -3.29248e-17
1.59037e-05 0.0639425 -2.88492e-17
0 0.0646651 -3.10888e-17
0.05 0.00434783 5.94331e-18
0.0493333 0.00434873 5.24792e-18
0.0486667 0.00435271 2.46574e-18
0.048 0.00435907 -8.32736e-19
0.0473334 0.00436711 -4.29626e-19
0.0466667 0.00437805 1.72964e-18
0.046 0.00439301 -2.45861e-18
0.0453334 0.00440964 1.67704e-18
0.0446668 0.00442791 -1.37965e-19
0.0440003 0.00444781 -1.42609e-18
0.0433333 0.0044716 5.50072e-18
0.0426667 0.00450061 4.3062e-18
0.042 0.00453008 8.66581e-18
0.0413334 0.00456025 1.13103e-17
0.0406669 0.00459207 9.38339e-18
0.04 0.00462948 5.82121e-18
0.0393333 0.00467339 1.58475e-18
0.0386666 0.00471676 -1.60998e-18
0.0379999 0.00475959 -1.8546e-20
0.0373333 0.0048047 1.34014e-18
0.0366667 0.00485739 8.19039e-18
0.036 0.00491797 -2.56306e-18
0.0353332 0.00497728 -9.20553e-18
0.0346663 0.0050353 -1.00431e-17
0.0339998 0.00509701 -8.46107e-18
0.0333333 0.00516771 -2.77556e-18
0.0326667 0.00524785 -8.74301e-18
0.0319998 0.00532629 -5.34244e-18
0.0313327 0.005403 -7.8053e-18
0.0306664 0.00548573 -9.82946e-18
0.03 0.0055786 -6.93889e-18
0.0293333 0.00568261 -1.08247e-17
0.0286664 0.00578486 -1.13099e-17
0.028 0.0058905 -1.36438e-17
0.0273348 0.00600345 -1.70518e-17
0.0266667 0.00612491 -1.94289e-17
0.0261284 0.00623326 -1.29813e-17
0.0255901 0.00634172 -2.04116e-17
0.0250529 0.00645562 -1.71752e-17
0.024517 0.00657522 -1.48344e-17
0.0241276 0.00666667 -9.6494e-18
0.0239687 0.00670538 -1.00787e-17
0.02381 0.00674467 -6.34498e-18
0.0236515 0.00678454 -1.30198e-17
0.023493 0.00682499 -1.2756e-17
0.0233333 0.00686642 -1.00471e-17
0.0226667 0.00704422 -1.1731e-17
0.0220025 0.00723116 -1.48179e-17
0.0213415 0.00742891 -1.19145e-17
0.020684 0.00763798 -1.44401e-17
0.02 0.00787219 -1.43358e-17
0.0193333 0.00812572 -1.16209e-17
0.0186708 0.00838976 -1.08872e-17
0.0180127 0.00866492 -1.26127e-17
0.0173621 0.00895718 -5.89615e-18
0.0166667 0.0092982 -1.249e-17
0.0164059 0.00943856 -1.01488e-17
0.0161461 0.00958092 -7.4598e-18
0.0158877 0.00972555 -9.80492e-18
0.0156309 0.00987317 -3.1323e-18
0.0154162 0.01 0
0.0149996 0.0102518 -7.6975e-18
0.0145891 0.0105133 -7.98933e-18
0.0141851 0.0107847 -1.11329e-17
0.0137878 0.011066 -1.35534e-17
0.0133333 0.0114078 -1.22323e-17
0.0128563 0.0117929 -9.12102e-18
0.0123897 0.0121904 -7.81653e-18
0.0119338 0.0126003 -7.38368e-18
0.0114895 0.0130227 -4.97577e-18
0.0111807 0.0133333 -4.51126e-18
0.0109445 0.0135805 -3.88656e-18
0.0107138 0.0138327 -5.74403e-18
0.0104884 0.0140898 -5.1047e-18
0.0102684 0.0143514 -1.05476e-17
0.01 0.014684 -1.17608e-17
0.00969577 0.0150805 -1.43844e-17
0.00940078 0.015484 -1.48757e-17
0.00911498 0.015894 -8.93449e-18
0.00883791 0.0163099 -2.92195e-18
0.00860851 0.0166667 6.93889e-18
0.00822014 0.0172886 6.91635e-18
0.00785937 0.017927 6.98509e-19
0.00752496 0.0185795 7.72732e-18
0.00720904 0.0192412 2.26788e-18
0.00687124 0.02 -5.04009e-18
0.00683033 0.0200984 3.18438e-18
0.00679003 0.0201971 -6.29575e-18
0.00675023 0.0202959 -5.89137e-18
0.00671084 0.0203949 -9.8242e-18
0.00666667 0.0205073 -5.67171e-18
0.00644737 0.0210725 -9.81093e-18
0.00623969 0.0216421 -3.61763e-18
0.00604298 0.0222155 -7.97755e-18
0.00585656 0.0227924 -1.42646e-18
0.00568782 0.0233333 0
0.00547847 0.024 -3.88578e-18
0.00529159 0.0246733 -2.23151e-18
0.00512608 0.0253522 -1.07733e-18
0.00496845 0.026033 -5.96511e-18
0.00481786 0.0266667 -4.61832e-18
0.00465586 0.0273333 5.03839e-18
0.00451485 0.0280048 7.37311e-18
0.00439047 0.0286795 6.36249e-18
0.00427027 0.0293549 3.60853e-18
0.00415456 0.03 -1.36762e-18
0.00402983 0.0306667 2.30955e-18
0.00392429 0.0313366 4.71126e-18
0.00382306 0.0320073 5.67777e-18
0.00372546 0.0326785 5.94782e-18
0.00363372 0.0333333 3.6631e-18
0.00357364 0.0337544 -2.12752e-18
0.00351851 0.0341762 -6.53747e-18
0.00346472 0.0345982 -9.21465e-18
0.00341225 0.0350203 -9.40132e-18
0.00333333 0.0356712 -6.93889e-18
0.00331011 0.0358703 -4.20201e-18
0.00328715 0.0360694 -5.62803e-18
0.00326444 0.0362686 -5.66584e-18
0.003242 0.0364677 -7.091e-18
0.00321984 0.0366667 -6.93889e-18
0.00314499 0.0373333 -3.19189e-18
0.00307433 0.0380005 7.84019e-18
[...]
POINT_DATA 41144
 FIELD attributes 1
U 3 41144 float
-6.45011e-19 	-1.70144e-21 	0
-0.015233 	2.53698e-05 	0 -0.015233 	2.53698e-05 	0 -0.015233 	2.53698e-05 	0 -0.015233 	2.53698e-05 	0 -0.015233 	2.53698e-05 	0 -0.015233 	2.53698e-05 	0 -0.0155666 	5.05157e-05 	0 -0.015804 	8.87833e-05 	-3.93085e-25 -0.0157643 	0.000163561 	-1.88038e-24 -0.0155109 	0.000220559 	-3.37465e-24 -0.0151868 	0.000271057 	-4.87479e-24 -0.0155115 	0.000264243 	1.90964e-22 -0.0156941 	0.000281978 	3.21898e-22 -0.0155937 	0.000350901 	3.18047e-22 -0.0153599 	0.000425734 	1.90184e-22 -0.0150646 	0.000504243 	-6.04676e-24 -0.0153666 	0.000469399 	3.50211e-23 -0.0154577 	0.000478381 	5.58078e-23 -0.0153079 	0.000541689 	5.17178e-23 -0.0151035 	0.000624807 	2.80678e-23 -0.0148481 	0.000728802 	-1.59182e-23 -0.0151166 	0.000670812 	-1.16791e-23 -0.0150866 	0.000686557 	-2.86874e-23 -0.0149012 	0.000745398 	-5.79032e-23 -0.0147173 	0.000822016 	-8.83497e-23 -0.0145099 	0.000948289 	-1.22135e-22 -0.014737 	0.000872661 	-9.2218e-23 -0.0145665 	0.000912794 	-8.72718e-23 -0.0143603 	0.000969048 	-8.57148e-23 -0.0141706 	0.00102708 	-8.44414e-23 -0.0140163 	0.00116572 	-1.109e-22 -0.0141145 	0.00110819 	-1.93951e-22 -0.0138861 	0.00116204 	-1.55743e-22 -0.0136735 	0.001218 	-1.16954e-22 -0.0134772 	0.00127617 	-7.75618e-23 -0.0133409 	0.00138413 	1.08452e-23 -0.013294 	0.00137215 	-4.6882e-23 -0.0131086 	0.00141748 	-3.33862e-23 -0.012934 	0.00146456 	-1.92123e-23 -0.0127703 	0.00151345 	-4.33601e-24 -0.0126537 	0.00155231 	7.60799e-24 -0.0126169 	0.00156619 	1.18895e-23 -0.012581 	0.00158021 	1.62239e-23 -0.0125459 	0.00159436 	2.06115e-23 -0.0125116 	0.00160866 	2.50528e-23 -0.0124409 	0.00165426 	9.2267e-24 -0.0122021 	0.00168238 	6.84467e-24 -0.0119984 	0.00174287 	7.7641e-24 -0.0118108 	0.00180666 	8.65268e-24 -0.01164 	0.00187388 	9.50904e-24 -0.0112822 	0.0021387 	5.1543e-23 -0.0109312 	0.00201733 	3.81634e-22 -0.0107424 	0.00207099 	4.68477e-22 -0.01058 	0.00214089 	5.40938e-22 -0.0103163 	0.00234415 	4.40261e-22 -0.00998244 	0.00268139 	1.81633e-22 -0.00967476 	0.00258892 	4.48162e-22 -0.00936546 	0.00249576 	7.14673e-22 -0.00905219 	0.00259723 	7.28839e-22 -0.00878481 	0.00290778 	4.94573e-22 -0.00856456 	0.00324711 	2.61486e-22 -0.00834061 	0.00319734 	4.65767e-22 -0.00805842 	0.00325561 	5.0152e-22 -0.00776021 	0.00338961 	4.34441e-22 -0.00749569 	0.00354316 	3.63995e-22 -0.00734329 	0.00365947 	3.14618e-22 -0.00729554 	0.00369925 	3.00646e-22 -0.00724926 	0.00374 	2.86528e-22 -0.00720446 	0.00378171 	2.72264e-22 -0.00714618 	0.00383538 	2.7064e-22 -0.00708008 	0.00389796 	2.75286e-22 -0.00667542 	0.00396435 	1.82744e-22 -0.00640827 	0.00414334 	9.87051e-23 -0.00617089 	0.00435359 	1.92471e-23 -0.00590128 	0.00463717 	2.61583e-23 -0.00562316 	0.00503983 	3.22327e-23 -0.00556142 	0.00508128 	1.85935e-23 -0.00550282 	0.00512565 	4.94772e-24 -0.00544643 	0.00517401 	3.03325e-23 -0.00539274 	0.00522595 	7.79229e-23 -0.00534746 	0.0052753 	1.20663e-22 -0.00504012 	0.00546639 	1.2152e-22 -0.00476576 	0.00569704 	1.16402e-22 -0.00453143 	0.0059357 	1.05263e-22 -0.00433545 	0.00617649 	8.85859e-23 -0.0040679 	0.00661456 	5.38369e-23 -0.00405108 	0.00664274 	8.92015e-23 -0.00403466 	0.00667143 	1.24261e-22 -0.00401862 	0.00670063 	1.59018e-22 -0.0040189 	0.00672218 	8.48036e-23 -0.00402102 	0.00674259 	4.02131e-25 -0.00363418 	0.0069126 	-6.81187e-22 -0.00342167 	0.0072708 	-1.12619e-21 -0.00326916 	0.00768695 	-1.50724e-21 -0.00335965 	0.00798343 	-1.19462e-21 -0.00343385 	0.00822152 	-9.47837e-22 -0.00300725 	0.00858161 	-6.23028e-22 -0.00274214 	0.00889319 	-3.65696e-22 -0.00264905 	0.0090955 	-1.98611e-22 -0.00256566 	0.00932355 	-2.659e-23 -0.00269533 	0.0096836 	1.79788e-23 -0.00252982 	0.00992685 	1.46442e-24 -0.00248147 	0.0100341 	0 -0.00244587 	0.0101323 	0 -0.00241181 	0.0102353 	0 -0.00236198 	0.0104 	0 -0.00231909 	0.0105511 	0 -0.00227895 	0.0107113 	0 -0.00224145 	0.0108801 	0 -0.0022065 	0.0110574 	0 -0.00226981 	0.0110048 	0 -0.00202234 	0.0111002 	0 -0.00194938 	0.0114464 	0 -0.00188553 	0.0118269 	0 -0.00189571 	0.0120462 	0 -0.00205834 	0.0118218 	0 -0.00173785 	0.0119725 	0 -0.00148914 	0.0122652 	0 -0.00144219 	0.0127858 	0 -0.00163406 	0.0125595 	0 -0.00182303 	0.012221 	0 -0.00148254 	0.0125022 	0 -0.00116042 	0.0129169 	0 -0.00112842 	0.013015 	0 -0.00136105 	0.0126548 	0 -0.00157366 	0.0121945 	0 -0.00121792 	0.0126221 	0 -0.000883403 	0.0132257 	0 -0.00084065 	0.0128521 	0 -0.0010946 	0.0124024 	0 -0.00132677 	0.0118179 	0 -0.000960873 	0.0124037 	0 -0.000720243 	0.0127511 	0 -0.000695438 	0.0123119 	0 -0.000836506 	0.0117761 	0 -0.00108403 	0.0110711 	0 -0.000713342 	0.0118225 	0 -0.000577376 	0.011821 	0 -0.0005557 	0.0113772 	0 -0.00059978 	0.010859 	0 -0.000857939 	0.0100443 	0 -0.000487957 	0.010964 	0 -0.000447717 	0.0106134 	0 -0.000429203 	0.0101746 	0 -0.00041069 	0.00973568 	0 -0.00065789 	0.00883914 	0 -0.000348992 	0.00960072 	0 -0.000333528 	0.00917531 	0 -0.000318064 	0.0087499 	0 -0.0003026 	0.00832449 	0 -0.000481737 	0.00743389 	0 -0.000247814 	0.00791848 	0 -0.000235118 	0.00751283 	0 -0.000222423 	0.00710718 	0 -0.000209728 	0.00670153 	0 -0.000332281 	0.00587699 	2.90443e-37 -0.00016478 	0.00608628 	0 -0.000154396 	0.00570275 	0 -0.000144013 	0.00531922 	0 -0.000133629 	0.00493568 	0 -0.000210318 	0.0042228 	2.9301e-40 -9.93031e-05 	0.00416225 	0 -9.05866e-05 	0.0037969 	0 -8.18702e-05 	0.00343156 	0 -7.31538e-05 	0.00306621 	0 -0.000112161 	0.0024945 	-1.05245e-37 -5.0958e-05 	0.00231845 	0 -4.47258e-05 	0.0020349 	0 -3.84936e-05 	0.00175135 	0 -3.22614e-05 	0.0014678 	0 -3.13479e-05 	0.000735231 	0 -1.50152e-05 	0.000682206 	0 -1.30761e-05 	0.000594106 	0 -1.11371e-05 	0.000506006 	0 -9.19801e-06 	0.000417906 	0 0 	0 	0
-0.0296269 	4.02097e-05 	0 -0.0298484 	0.000177971 	0 -0.0299571 	0.000285923 	-6.965e-25 -0.0299352 	0.000360991 	-2.16132e-24 -0.0297481 	0.000488433 	-1.78135e-23 -0.0294308 	0.000660371 	-4.54724e-23 -0.0295627 	0.00073731 	-2.2498e-22 -0.0296215 	0.000811843 	-3.35666e-22 -0.0295636 	0.0008825 	-3.41528e-22 -0.0292839 	0.00104484 	-2.31246e-22 -0.028903 	0.00125779 	-5.87796e-23 -0.0289468 	0.00127943 	-6.90243e-23 -0.0289633 	0.00131096 	-7.79993e-23 -0.0288749 	0.00137825 	-8.22852e-23 -0.0284804 	0.00159777 	-5.58232e-23 -0.02806 	0.00184824 	-2.38042e-23 -0.0280235 	0.00182309 	-4.74243e-23 -0.0279839 	0.00179759 	-7.1045e-23 -0.0278295 	0.00188346 	-9.40939e-23 -0.0273555 	0.00216189 	-9.08204e-23 -0.0269208 	0.00244631 	-8.71849e-23 -0.0268164 	0.0023853 	-2.74952e-22 -0.0267054 	0.00232327 	-4.62813e-22 -0.0264007 	0.0024444 	-4.4729e-22 -0.0259332 	0.00275127 	-2.28673e-22 -0.0255081 	0.00306622 	-9.48974e-24 -0.0253511 	0.002982 	1.52643e-22 -0.0251861 	0.00289619 	3.14708e-22 -0.0246686 	0.00306257 	3.2788e-22 -0.0242259 	0.00337618 	2.40384e-22 -0.0238319 	0.00371821 	1.40249e-22 -0.0236388 	0.00362432 	2.78922e-22 -0.0232505 	0.00368567 	3.15032e-22 -0.0227438 	0.0038618 	2.78565e-22 -0.0222656 	0.00404759 	2.40891e-22 -0.0219196 	0.0044121 	9.2956e-23 -0.021711 	0.00437469 	8.50482e-23 -0.021312 	0.00451922 	1.15882e-22 -0.0209316 	0.00467113 	1.47232e-22 -0.020571 	0.00483077 	1.79121e-22 -0.0203233 	0.00495293 	2.02758e-22 -0.0202268 	0.00500701 	2.0461e-22 -0.0201323 	0.0050619 	2.06398e-22 -0.0200399 	0.00511761 	2.08121e-22 -0.0199496 	0.00517416 	2.09778e-22 -0.0197947 	0.00527923 	2.1796e-22 -0.0192903 	0.00542965 	1.9766e-22 -0.0188685 	0.0056448 	2.01907e-22 -0.0184785 	0.00587522 	2.03764e-22 -0.0180447 	0.00617937 	2.23099e-22 -0.0174696 	0.00664347 	2.82891e-22 -0.0169801 	0.00676674 	1.60552e-22 -0.0165212 	0.0069085 	3.73589e-23 -0.0159623 	0.00717037 	0 -0.0155103 	0.00760557 	4.02427e-23 -0.0150809 	0.00811601 	8.13033e-23 -0.0149367 	0.00818725 	3.48275e-23 -0.0147838 	0.00827207 	0 -0.0145957 	0.00839084 	0 -0.0144152 	0.00851499 	0 -0.0142697 	0.00862412 	0 -0.0139422 	0.00888289 	0 -0.0136382 	0.00916096 	0 -0.0133585 	0.00945865 	0 -0.0130177 	0.00979051 	0 -0.012642 	0.0102068 	0 -0.0122905 	0.0104697 	0 -0.0119727 	0.010763 	0 -0.0116404 	0.0110671 	0 -0.0113297 	0.0113971 	0 -0.0111338 	0.0116555 	0 -0.010912 	0.0119256 	0 -0.0107043 	0.01221 	0 -0.0104937 	0.0124799 	-1.84636e-23 -0.0102834 	0.0127406 	-5.16388e-23 -0.0100372 	0.0130829 	-9.30277e-23 -0.00978503 	0.013383 	-9.9386e-23 -0.00955532 	0.0137086 	-1.06857e-22 -0.00935285 	0.014041 	-1.37874e-22 -0.00919772 	0.0143028 	-2.86011e-22 -0.00907949 	0.0145402 	-4.11971e-22 -0.00856019 	0.0151463 	-6.36678e-22 -0.00810125 	0.0158085 	-8.26566e-22 -0.00777416 	0.0162831 	-5.30245e-22 -0.00748221 	0.016807 	-2.39002e-22 -0.0072804 	0.0175096 	1.45909e-22 -0.00721287 	0.0176581 	2.43561e-22 -0.0071565 	0.0177776 	2.72737e-22 -0.00710986 	0.0178714 	2.41539e-22 -0.0070641 	0.0179666 	2.10678e-22 -0.00701324 	0.0180759 	1.76099e-22 -0.00677119 	0.0185702 	1.6056e-22 -0.00655376 	0.0191059 	1.46477e-22 -0.0063595 	0.0196802 	1.33767e-22 -0.00628635 	0.0201518 	1.35804e-22 -0.00639873 	0.020376 	1.61301e-22 -0.00583154 	0.0210107 	1.01287e-22 -0.00529851 	0.0217336 	4.23568e-23 -0.00520806 	0.0224926 	1.69797e-22 -0.00543091 	0.0228539 	3.55518e-22 -0.00563132 	0.0231737 	5.27035e-22 -0.00505143 	0.0240533 	2.32842e-22 -0.00458824 	0.0248877 	0 -0.00448412 	0.0251992 	0 -0.00458595 	0.0255677 	2.9037e-25 -0.00485413 	0.025944 	8.17073e-25 -0.00426708 	0.0270875 	2.96796e-26 -0.00414643 	0.0274693 	0 -0.00404912 	0.0278452 	0 -0.00395701 	0.0282457 	0 -0.00408699 	0.0286479 	-1.21374e-22 -0.00382785 	0.0292869 	0 -0.0037657 	0.0295416 	0 -0.00370556 	0.0298071 	0 -0.00364741 	0.0300832 	0 -0.00356075 	0.0305248 	0 -0.0035361 	0.0306653 	0 -0.00351185 	0.030808 	0 -0.00348798 	0.0309528 	0 -0.00346449 	0.0310996 	0 -0.00348684 	0.0310582 	0 -0.00333854 	0.0315171 	0 -0.00324832 	0.0319859 	0 -0.00316254 	0.0324822 	0 -0.00308103 	0.033005 	0 -0.00319793 	0.03266 	0 -0.00289406 	0.0333358 	0 -0.00280719 	0.0338595 	0 -0.00272438 	0.0344117 	0 -0.00265494 	0.0349436 	0 -0.00289932 	0.0339439 	0 -0.00252934 	0.0348635 	0 -0.00238755 	0.0355148 	0 -0.00230724 	0.0361126 	0 -0.00235201 	0.0360775 	0 -0.00259933 	0.0349236 	0 -0.00223541 	0.0360088 	0 -0.00199705 	0.0369352 	0 -0.00191981 	0.0375666 	0 -0.00206313 	0.0369461 	0 -0.00230987 	0.0356446 	0 -0.00195684 	0.0368881 	0 -0.00164733 	0.0381513 	7.60603e-38 -0.00157533 	0.0388045 	6.4771e-37 -0.00180058 	0.0376063 	1.22096e-36 -0.00204484 	0.0361667 	1.78737e-36 -0.00170659 	0.0375576 	1.15688e-36 -0.00137572 	0.0390834 	5.32655e-37 -0.00132713 	0.0395513 	7.82399e-40 -0.00157582 	0.0380805 	1.6631e-39 -0.00181852 	0.0365125 	2.53351e-39 -0.00149755 	0.0380382 	1.57784e-39 -0.00118325 	0.0397017 	6.31226e-40 -0.001152 	0.0399739 	-3.96411e-37 -0.0014039 	0.0383893 	-9.75559e-37 -0.00165016 	0.0367002 	-1.54841e-36 -0.00134724 	0.0383499 	-9.25781e-37 -0.00105044 	0.0401393 	-3.08765e-37 -0.00103864 	0.0402504 	0 -0.00130557 	0.0385561 	0 -0.00156666 	0.0367445 	0 -0.0012808 	0.0385148 	0 -0.00100087 	0.0404276 	0 -0.00100581 	0.0403846 	0 -0.00130852 	0.038572 	0 -0.00160423 	0.0366181 	0 -0.00133351 	0.0385234 	0 -0.00106917 	0.0405776 	0 -0.00107699 	0.0403368 	0 -0.00144808 	0.0383706 	0 -0.00180889 	0.036219 	0 -0.00155303 	0.0383108 	0 -0.00130516 	0.0405654 	0 -0.00128152 	0.039955 	0 -0.00175774 	0.0377721 	0 -0.00222491 	0.0352991 	0 -0.00199138 	0.0377058 	0 -0.00180381 	0.0395398 	0 -0.00175772 	0.0385294 	0 -0.00221838 	0.0362585 	0 -0.00283653 	0.0332173 	0 -0.00265318 	0.0362271 	0 -0.00250924 	0.0369957 	0 -0.00239378 	0.0352934 	0 -0.00262615 	0.0328199 	0 -0.00341816 	0.0287651 	0 -0.00335678 	0.0329945 	0 -0.00309069 	0.0309433 	0 -0.00279315 	0.0279643 	0 -0.0024956 	0.0249854 	0 -0.00318157 	0.0195838 	0 -0.00308321 	0.0222101 	0 -0.00242227 	0.017449 	0 -0.00176133 	0.0126878 	0 -0.00110038 	0.0079267 	0 -0.000161743 	0.000777104 	0 -0.000170532 	0.000989639 	0 -0.000135003 	0.000783455 	0 -9.94737e-05 	0.000577271 	0 -6.39447e-05 	0.000371088 	0 0 	0 	0
-0.0430617 	4.30152e-05 	0 -0.0430307 	0.000255098 	-2.01993e-23 -0.0429487 	0.000488268 	-4.61289e-23 -0.0428874 	0.000721948 	-7.21976e-23 -0.0428468 	0.000956132 	-9.84051e-23 -0.0427824 	0.0011808 	-1.25e-22 -0.0426351 	0.00137654 	-1.53883e-22 -0.04245 	0.00159538 	-1.54277e-22 -0.0422848 	0.00181575 	-1.53879e-22 -0.0421395 	0.00203764 	-1.52681e-22 -0.0420889 	0.00212816 	-1.51868e-22 -0.0420761 	0.00215507 	-1.52148e-22 -0.0420636 	0.002182 	-1.52423e-22 -0.0420515 	0.00220895 	-1.52694e-22 -0.0420396 	0.00223593 	-1.52961e-22 -0.0420186 	0.00226754 	-1.5402e-22 -0.0417414 	0.00247515 	-1.26144e-22 -0.04148 	0.00268433 	-9.82453e-23 -0.0412391 	0.00289617 	-7.01596e-23 -0.0410189 	0.00311072 	-4.18847e-23 -0.0407064 	0.00338699 	-1.89157e-23 -0.0403928 	0.0035834 	-4.21931e-24 -0.04007 	0.00378702 	4.29074e-24 -0.0397677 	0.00399435 	1.30192e-23 -0.0394865 	0.00420547 	2.19706e-23 -0.038963 	0.00456641 	1.71826e-23 -0.0386022 	0.00472318 	2.10369e-22 -0.0382414 	0.00492799 	2.53813e-22 -0.0379018 	0.00513772 	2.98546e-22 -0.0374843 	0.00541154 	2.73924e-22 -0.0368427 	0.00584189 	7.40647e-23 -0.0364236 	0.00597514 	4.75054e-23 -0.0360285 	0.00613195 	3.02341e-23 -0.0356761 	0.00635237 	4.22518e-23 -0.0350232 	0.0067845 	7.48102e-23 -0.0343956 	0.00724318 	1.07652e-22 -0.0339508 	0.00737457 	5.86317e-23 -0.0335239 	0.00751273 	9.40936e-24 -0.0328638 	0.00782884 	7.4266e-26 -0.0322505 	0.00829552 	1.6696e-23 -0.0316705 	0.00879071 	3.31629e-23 -0.0312332 	0.00893969 	5.12173e-24 -0.0305857 	0.00926306 	0 -0.0299237 	0.00964225 	0 -0.0293041 	0.0100433 	0 -0.0287425 	0.0104574 	0 -0.0287358 	0.0104635 	0 -0.0287291 	0.0104696 	0 -0.0287224 	0.0104756 	0 -0.0287145 	0.0104824 	0 -0.0287042 	0.0104904 	0 -0.0280428 	0.0108875 	0 -0.0274276 	0.0113145 	0 -0.0268574 	0.0117695 	0 -0.0262348 	0.0123016 	0 -0.0254521 	0.0129969 	0 -0.0248139 	0.0133909 	0 -0.0242082 	0.0138275 	0 -0.0234638 	0.0143755 	0 -0.0227866 	0.0149717 	0 -0.0220889 	0.0157148 	0 -0.0220882 	0.0157155 	0 -0.0220875 	0.0157162 	0 -0.0220866 	0.0157169 	0 -0.0220857 	0.0157176 	0 -0.0220847 	0.0157184 	0 -0.0213209 	0.0163467 	0 -0.0206251 	0.0170386 	0 -0.019985 	0.0177898 	-3.66761e-26 -0.0192716 	0.0185583 	-4.32318e-25 -0.0184352 	0.0196567 	-9.53467e-25 -0.018342 	0.0197811 	-9.55825e-25 -0.0182509 	0.0199074 	-9.586e-25 -0.0181563 	0.0200261 	-7.15221e-24 -0.0180559 	0.0201334 	-2.19127e-23 -0.0179626 	0.020237 	-3.59148e-23 -0.0171832 	0.021077 	-3.23205e-23 -0.0164833 	0.0220071 	-2.53234e-23 -0.0158285 	0.0228693 	-5.27575e-23 -0.0152547 	0.0237393 	-1.10037e-22 -0.0148534 	0.024634 	-1.87697e-22 -0.0147603 	0.0248288 	-2.51558e-22 -0.0146688 	0.0250196 	-3.00768e-22 -0.0145762 	0.0251676 	-2.38672e-22 -0.0144853 	0.0253175 	-1.7699e-22 -0.014387 	0.0254848 	-1.09443e-22 -0.0139339 	0.0262071 	2.53733e-22 -0.0135236 	0.0269829 	6.04533e-22 -0.0131543 	0.0278093 	9.43331e-22 -0.0129124 	0.0284032 	6.48639e-22 -0.012744 	0.0288852 	2.2847e-22 -0.0120961 	0.0299591 	-1.29819e-22 -0.0115025 	0.0311168 	-4.92947e-22 -0.0111269 	0.0318114 	-9.15728e-23 -0.0108911 	0.0325803 	6.55297e-22 -0.0107971 	0.033328 	1.62731e-21 -0.0104519 	0.0341733 	2.27223e-21 -0.0102162 	0.0347419 	2.03612e-21 -0.0100185 	0.0352427 	1.55327e-21 -0.0098303 	0.0357614 	1.08053e-21 -0.00957055 	0.0365392 	4.08502e-22 -0.00947956 	0.0368424 	3.0612e-22 -0.00939112 	0.0371505 	2.04e-22 -0.00930519 	0.0374635 	1.02138e-22 -0.00922508 	0.0377752 	2.85745e-24 -0.00929019 	0.037829 	3.02844e-24 -0.00877804 	0.038756 	-8.40506e-23 -0.00850635 	0.0397439 	-2.94123e-22 -0.00825664 	0.0407788 	-5.0812e-22 -0.00816096 	0.041586 	-7.25514e-22 -0.00839976 	0.0417396 	-9.37606e-22 -0.00772555 	0.0429028 	-6.14019e-22 -0.00712902 	0.0441475 	-1.60096e-22 -0.00695085 	0.0452993 	1.24495e-21 -0.00724555 	0.0454612 	2.36712e-21 -0.00752355 	0.0455889 	3.45114e-21 -0.00684496 	0.0469803 	1.91944e-21 -0.00619329 	0.048475 	4.08732e-22 -0.00603324 	0.0491023 	6.54761e-25 -0.006357 	0.0492255 	3.63789e-24 -0.00666478 	0.0493094 	6.54018e-24 -0.00598683 	0.0509212 	2.70235e-24 -0.00548662 	0.0522356 	0 -0.00537893 	0.0526295 	0 -0.0055097 	0.0528402 	-2.9988e-21 -0.00583666 	0.05286 	-8.50545e-21 -0.00516493 	0.0546773 	-1.61262e-21 -0.00492743 	0.055419 	0 -0.00482327 	0.055838 	0 -0.00472177 	0.0562779 	0 -0.00505597 	0.0562147 	-1.07912e-23 -0.00448887 	0.0579295 	0 -0.00438693 	0.0583435 	0 -0.00428734 	0.0587788 	0 -0.00419007 	0.0592348 	0 -0.00433588 	0.0593304 	2.53873e-21 -0.00397439 	0.0605574 	3.30179e-37 -0.00387991 	0.06098 	9.66423e-37 -0.00378741 	0.0614231 	1.60155e-36 -0.00369686 	0.0618862 	2.23559e-36 -0.00369601 	0.0621946 	2.98376e-36 -0.00354306 	0.0628041 	3.24564e-36 -0.00348841 	0.0630804 	2.69695e-36 -0.00343445 	0.0633649 	2.15131e-36 -0.00338118 	0.0636575 	1.60866e-36 -0.00331015 	0.0640634 	8.79881e-37 -0.00328708 	0.0642026 	6.95742e-37 -0.00326413 	0.0643433 	5.11681e-37 -0.00324132 	0.0644856 	3.27698e-37 -0.00321864 	0.0646293 	1.43793e-37 -0.00321842 	0.06462 	4.48383e-39 -0.00313388 	0.0651158 	-5.18229e-37 -0.003071 	0.065544 	-1.0864e-36 -0.0030093 	0.0659874 	-1.65535e-36 -0.00294874 	0.0664458 	-2.22509e-36 -0.00297857 	0.0662445 	-2.79491e-36 -0.00285862 	0.0670526 	-2.17228e-36 -0.00282845 	0.0674875 	-1.55097e-36 -0.00279894 	0.0679317 	-9.30079e-37 -0.00277009 	0.0683849 	-3.09586e-37 -0.0028847 	0.0676576 	0 -0.00273867 	0.0688119 	0 -0.002762 	0.0692709 	0 -0.00278526 	0.0697289 	0 -0.00280846 	0.0701859 	0 -0.00301834 	0.0688966 	0 -0.00283954 	0.0704506 	0 -0.00294925 	0.0709677 	0 -0.00305758 	0.0714665 	0 -0.00316456 	0.0719474 	0 -0.00349445 	0.0699687 	0 -0.00324635 	0.0720365 	0 -0.00349366 	0.0726707 	0 -0.00373678 	0.0732578 	0 -0.00400341 	0.0734166 	0 -0.00446199 	0.0707913 	0 -0.00422846 	0.073198 	0 -0.00450596 	0.0744471 	0 -0.00495735 	0.0752041 	0 -0.00546732 	0.074328 	0 -0.00606536 	0.0710287 	0 -0.00588201 	0.0740384 	0 -0.00604382 	0.0764281 	0 -0.00680371 	0.0775008 	0 -0.00756857 	0.0744428 	0 -0.00830415 	0.0698827 	0 -0.00824278 	0.0741121 	0 -0.00820201 	0.078519 	0 -0.00907502 	0.0787614 	0 -0.00990566 	0.072405 	0 -0.010641 	0.0654998 	0 -0.0108512 	0.0722514 	0 -0.0111146 	0.0793409 	0 -0.0105667 	0.0756866 	0 -0.0110355 	0.0654052 	0 -0.0113083 	0.0543318 	0 -0.0120324 	0.0664907 	0 -0.0115136 	0.0668165 	0 -0.010006 	0.0580676 	0 -0.00849845 	0.0493187 	0 -0.00720226 	0.031257 	0 -0.00790831 	0.0462398 	0 -0.00642394 	0.0375607 	0 -0.00493956 	0.0288816 	0 -0.00345519 	0.0202025 	0 0 	0 	0