# vtk DataFile Version 2.0
track0
ASCII
DATASET POLYDATA
POINTS 40070 float
0.05 8.57988e-20 2.57396e-18
0.05 0.00217391 -1.05592e-17
0.05 0.00217391 -1.05592e-17
0.05 0.00217391 -1.05592e-17
0.05 0.00217391 -1.05592e-17
0.05 0.00217391 -1.05592e-17
0.05 0.00217391 -1.38778e-17
0.0493333 0.00217539 -3.19189e-18
0.0486667 0.00217783 -5.41234e-18
0.048 0.00218178 -5.42184e-18
0.0473334 0.00218886 -7.11464e-18
0.0466667 0.00219853 -1.11022e-17
0.046 0.00221067 -5.27356e-18
0.0453333 0.00222219 -5.06537e-18
0.0446667 0.00223429 -4.81402e-18
0.044 0.00224937 -3.05729e-18
0.0433333 0.00226794 -1.38778e-17
0.0426667 0.00229038 -4.57967e-18
0.0419999 0.00231082 -3.67804e-18
0.0413332 0.0023315 -3.94215e-18
0.0406666 0.0023551 -6.0037e-18
0.04 0.00238268 -6.93889e-18
0.0393333 0.00241543 -1.08247e-17
0.0386665 0.00244501 -1.13102e-17
0.0379997 0.00247533 -8.9233e-18
0.0373331 0.00250863 -1.04946e-17
0.0366667 0.00254578 -1.11022e-17
0.036 0.0025893 -8.74301e-18
0.0353331 0.0026287 -5.40979e-18
0.0346663 0.0026704 -3.7134e-18
0.0339997 0.00271527 -7.49685e-18
0.0333333 0.00276344 -6.93889e-18
0.0326667 0.00281876 -1.27676e-17
0.0319998 0.00287099 -1.02691e-17
0.0313331 0.00292662 -1.44167e-17
0.0306668 0.0029858 -5.71335e-18
0.03 0.00304875 1.38778e-18
0.0294498 0.00310567 6.46733e-18
0.0288996 0.00316229 1.13858e-18
0.0283497 0.00322157 -4.3641e-18
0.0278001 0.00328361 -5.13414e-18
0.0273793 0.00333333 -9.32214e-18
0.0272367 0.00335076 -8.29038e-18
0.0270943 0.0033684 -8.64634e-18
0.0269518 0.00338624 -1.45533e-17
0.0268093 0.00340428 -1.07458e-17
0.0266667 0.00342257 -1.08793e-17
0.026 0.00351092 -9.44161e-19
0.0253338 0.00360248 1.17746e-17
0.0246682 0.00369885 1.13078e-17
0.0240034 0.00380022 1.69252e-17
0.0233333 0.00390774 2.54112e-17
0.0226667 0.00403367 1.34054e-17
0.0219994 0.00415636 1.04255e-17
0.0213331 0.00428439 9.92469e-18
0.0206681 0.00441852 1.1448e-17
0.02 0.00456976 2.40748e-17
0.0193333 0.00474823 1.76077e-17
0.0186665 0.00492604 1.50504e-17
0.0179995 0.00510313 1.57834e-17
0.0173359 0.00529279 2.05072e-17
0.0166667 0.00551356 2.498e-17
0.0160567 0.00574418 2.37281e-17
0.0154476 0.00597705 1.88124e-17
0.0148429 0.00622095 1.26081e-17
0.0142453 0.00648185 1.06736e-17
0.0138546 0.00666667 1.02341e-17
0.0137503 0.00671869 1.04078e-17
0.0136464 0.00677141 1.19686e-17
0.0135429 0.00682483 9.36545e-18
0.0134397 0.00687895 1.11051e-17
0.0133333 0.00693597 9.26597e-18
0.0126667 0.00730211 5.88066e-18
0.0120125 0.00769007 2.45904e-18
0.0113736 0.00810284 -5.03228e-19
0.0107521 0.00854125 6.92848e-19
0.01 0.00913262 1.11022e-17
0.00980686 0.0093061 1.43603e-17
0.00961544 0.00948148 1.20629e-17
0.00942578 0.00965875 2.72893e-18
0.00923793 0.00983794 6.42301e-18
0.00907147 0.01 1.11022e-17
0.00859051 0.0104769 1.50691e-17
0.00813283 0.0109762 6.95845e-18
0.0076999 0.0114972 7.36452e-18
0.00729067 0.0120369 7.01624e-18
0.00666667 0.0129321 0
0.0066177 0.0130123 5.46957e-18
0.00656903 0.0130928 5.38852e-18
0.00652066 0.0131734 1.14463e-18
0.00647258 0.0132542 -1.06457e-18
0.00642562 0.0133333 0
0.00603108 0.014 2.77556e-19
0.00567263 0.0146867 -4.68249e-18
0.00534461 0.0153885 -3.30249e-18
0.00504342 0.0161022 -8.60852e-18
0.0048076 0.0166667 3.86748e-19
0.00453105 0.0173333 1.25717e-18
0.0042936 0.0180149 1.10107e-18
0.00408245 0.0187051 1.14271e-18
0.00388195 0.0193984 -7.86685e-18
0.00371748 0.02 -3.83837e-18
0.00364065 0.0202766 -4.45847e-18
0.00357025 0.020555 -6.75612e-18
0.00350192 0.0208339 -8.60652e-18
0.00343521 0.0211131 -5.25481e-18
0.00333333 0.0215506 -3.35009e-18
0.00325352 0.0219071 -1.5207e-18
0.00317597 0.0222642 -1.64984e-18
0.00310062 0.0226217 -4.55087e-18
0.0030274 0.0229797 -3.28504e-18
0.00295715 0.0233333 -6.93889e-18
0.00282062 0.024 -7.35523e-18
0.00269883 0.0246695 -6.04158e-18
0.00258458 0.0253404 -3.68073e-18
0.00247728 0.0260124 -7.50641e-19
0.00237473 0.0266667 0
0.00225917 0.0273333 2.35922e-18
0.00216218 0.028003 4.72582e-18
0.00207996 0.0286745 7.62717e-18
0.00200333 0.0293468 9.50073e-18
0.00191835 0.03 0
0.00181902 0.0306667 -8.04912e-18
0.00173943 0.031336 -3.26568e-18
0.00167863 0.0320073 -5.03978e-18
0.00161991 0.0326787 -1.3658e-17
0.00154914 0.0333333 -1.43514e-17
0.00146286 0.034 -1.18413e-17
0.00139772 0.0346691 -1.01496e-17
0.00135209 0.0353397 -1.28384e-17
0.00130745 0.0360105 -9.32377e-18
0.00124886 0.0366667 -1.17942e-17
0.00117343 0.0373333 -1.58319e-17
0.00112074 0.0380022 -1.05711e-17
0.00108252 0.038672 -1.09724e-17
0.00104431 0.0393418 -1.11531e-17
0.00099662 0.04 -7.21082e-18
0.000930447 0.0406667 -1.54951e-18
0.000888992 0.0413353 3.51885e-18
0.000855747 0.0420044 -2.15566e-19
0.000822502 0.0426736 3.22003e-18
0.000784966 0.0433333 2.8561e-18
0.000726842 0.044 1.77344e-19
0.000695848 0.0446685 -3.23137e-19
0.000666918 0.045337 -5.61297e-19
0.000637987 0.0460056 8.03976e-18
0.000609382 0.0466667 8.69963e-18
0.000558318 0.0473333 5.90502e-18
0.000533154 0.0480015 3.4167e-18
0.00050799 0.0486696 3.25635e-18
0.000482826 0.0493378 2.49061e-18
0.000457885 0.05 -7.62532e-19
0.000412994 0.0506667 1.81023e-18
0.000391082 0.0513345 5.73442e-18
0.00036917 0.0520023 4.99217e-18
0.000347258 0.0526701 5.9617e-18
0.000325497 0.0533333 2.2335e-18
0.000285886 0.054 3.06274e-18
0.000266674 0.0546676 3.90064e-19
0.000247462 0.0553351 7.42162e-18
0.00022825 0.0560027 1.42896e-17
0.000209141 0.0566667 1.07539e-17
0.000173804 0.0573333 9.84134e-18
0.000156625 0.0580007 1.72264e-17
0.000139446 0.0586681 2.19939e-17
0.000122267 0.0593355 1.98417e-17
0.000105162 0.06 2.20293e-17
8.41296e-05 0.0604339 2.93789e-17
7.3693e-05 0.0608682 2.69971e-17
6.32564e-05 0.0613026 2.84317e-17
5.28198e-05 0.0617369 3.36235e-17
1.44567e-05 0.0633333 3.46704e-17
1.15654e-05 0.0633956 3.18733e-17
1.00562e-05 0.0634579 3.34975e-17
8.54703e-06 0.0635203 3.44711e-17
7.03786e-06 0.0635826 3.05876e-17
0 0.0638733 2.72669e-17
0.05 0.00434783 5.94331e-18
0.0493333 0.00434926 1.0837e-18
0.0486667 0.00435366 -4.47474e-18
0.048 0.00436038 -4.30219e-18
0.0473334 0.00436876 -7.73826e-19
0.0466667 0.00438006 -3.13094e-18
0.046 0.00439541 -9.40149e-18
0.0453334 0.00441233 -4.57244e-18
0.0446668 0.00443083 -4.99521e-18
0.0440002 0.00445095 -5.90488e-18
0.0433333 0.00447499 -4.88504e-18
0.0426667 0.00450427 -7.11864e-18
0.042 0.00453393 -6.92105e-18
0.0413334 0.00456423 -3.60833e-18
0.0406669 0.00459617 -8.61661e-18
0.04 0.00463373 -5.63504e-18
0.0393333 0.00467781 -7.79012e-18
0.0386666 0.0047213 -1.30667e-17
0.0379999 0.00476419 -1.05927e-17
0.0373333 0.00480938 -7.67261e-18
0.0366667 0.00486214 -1.91843e-18
0.036 0.0049228 -6.42771e-18
0.0353332 0.00498216 -9.03744e-18
0.0346663 0.00504019 -8.44928e-18
0.0339997 0.00510192 -7.64777e-18
0.0333333 0.00517263 -1.38778e-17
0.0326667 0.00525278 -8.74301e-18
0.0319998 0.00533121 -7.42411e-18
0.0313327 0.00540789 -8.85832e-18
0.0306664 0.00549061 -6.36814e-18
0.03 0.00558343 -6.93889e-18
0.0293333 0.0056874 -7.35523e-18
0.0286664 0.0057896 -1.02691e-17
0.028 0.00589522 -6.00319e-18
0.0273348 0.00600813 -8.03968e-18
0.0266667 0.00612953 -1.38778e-17
0.0261326 0.00623696 -1.5764e-17
0.0255986 0.00634449 -1.97319e-17
0.0250657 0.00645737 -2.00588e-17
0.0245341 0.00657584 -1.89683e-17
0.0241466 0.00666667 -1.93954e-17
0.0239839 0.00670622 -1.84307e-17
0.0238214 0.00674638 -1.1915e-17
0.0236591 0.00678714 -1.44202e-17
0.0234969 0.00682852 -1.97013e-17
0.0233333 0.00687091 -1.83813e-17
0.0226667 0.00704872 -1.86774e-17
0.0220025 0.00723565 -1.76009e-17
0.0213415 0.00743341 -1.98943e-17
0.020684 0.0076425 -1.99837e-17
0.02 0.00787681 -1.91815e-17
0.0193333 0.00813045 -1.5252e-17
0.0186708 0.00839465 -1.36628e-17
0.0180128 0.00867003 -1.46098e-17
0.0173623 0.00896258 -1.42318e-17
0.0166667 0.00930411 -1.11022e-17
0.0164085 0.00944329 -1.43078e-17
0.0161513 0.00958445 -1.0244e-17
0.0158955 0.00972784 -1.67568e-17
0.0156412 0.00987418 -1.9109e-17
0.0154285 0.01 -2.35922e-17
0.0150095 0.0102535 -1.98511e-17
0.0145966 0.010517 -2.25735e-17
0.0141903 0.0107905 -2.91828e-17
0.013791 0.0110741 -1.90962e-17
0.0133333 0.0114194 -2.3354e-17
0.0128611 0.0118022 -2.43787e-17
0.0123991 0.0121973 -2.30664e-17
0.0119478 0.0126045 -1.74684e-17
0.011508 0.0130242 -1.88203e-17
0.0112016 0.0133333 -1.51288e-17
0.0109613 0.0135857 -1.51561e-17
0.0107265 0.0138432 -1.90557e-17
0.0104975 0.0141058 -2.10525e-17
0.0102739 0.0143732 -2.43984e-17
0.01 0.0147147 -2.4558e-17
0.00970271 0.0151051 -2.40873e-17
0.00941434 0.0155021 -2.45676e-17
0.00913484 0.0159054 -1.93759e-17
0.00886376 0.0163145 -1.82306e-17
0.00863826 0.0166667 -1.249e-17
0.00824394 0.0173005 -1.4448e-17
0.00787811 0.0179513 -1.62289e-17
0.00753945 0.0186165 -1.66398e-17
0.00721974 0.0192911 -1.9812e-17
0.00690667 0.02 -2.57683e-17
0.00685867 0.0201155 -2.86637e-17
0.00681151 0.0202314 -3.52443e-17
0.00676504 0.0203475 -3.32388e-17
0.00671911 0.0204638 -3.29685e-17
0.00666667 0.0205985 -3.45872e-17
0.00645697 0.0211455 -4.22415e-17
0.0062579 0.0216964 -4.09263e-17
0.00606889 0.0222508 -3.84655e-17
0.00588932 0.0228084 -3.2706e-17
0.00572595 0.0233333 -3.19189e-17
0.00551706 0.024 -2.88658e-17
0.00533038 0.0246732 -2.85992e-17
0.00516479 0.0253519 -2.92443e-17
0.00500702 0.0260325 -2.9464e-17
0.00485611 0.0266667 -3.00232e-17
0.00469382 0.0273333 -2.95612e-17
0.00455232 0.0280047 -2.60828e-17
0.00442794 0.0286795 -2.48626e-17
0.00430767 0.029355 -2.58193e-17
0.0041912 0.03 -2.98781e-17
0.00406561 0.0306667 -2.75873e-17
0.00395906 0.0313366 -2.72656e-17
0.0038574 0.0320074 -3.4568e-17
0.00375928 0.0326786 -2.73592e-17
0.003667 0.0333333 -3.10868e-17
0.00360026 0.0337951 -2.79515e-17
0.00353948 0.0342577 -2.51717e-17
0.00348027 0.0347205 -2.29146e-17
0.00342259 0.0351835 -2.35509e-17
0.00333333 0.0359193 -2.35922e-17
0.00331595 0.0360688 -1.80701e-17
0.00329871 0.0362183 -2.78132e-17
0.00328161 0.0363678 -2.64539e-17
0.00326466 0.0365173 -1.95433e-17
0.00324786 0.0366667 -1.94289e-17
0.00317242 0.0373333 -2.1233e-17
0.00310082 0.0380004 -1.29764e-17
0.00303203 0.0386678 -1.43796e-17
0.00296595 0.0393355 -8.93848e-18
[...]
POINT_DATA 40070
 FIELD attributes 1
U 3 40070 float
-6.13966e-19 	-1.45262e-21 	0
-0.0144633 	3.19744e-05 	0 -0.0144633 	3.19744e-05 	0 -0.0144633 	3.19744e-05 	0 -0.0144633 	3.19744e-05 	0 -0.0144633 	3.19744e-05 	0 -0.0144633 	3.19744e-05 	0 -0.0147901 	5.41629e-05 	0 -0.0150215 	8.90597e-05 	-5.18729e-25 -0.014981 	0.000159156 	-2.47494e-24 -0.0147324 	0.000213634 	-4.4402e-24 -0.0144143 	0.000262381 	-6.41326e-24 -0.0147329 	0.000254699 	2.49908e-22 -0.0149115 	0.000270607 	4.20537e-22 -0.0148142 	0.000335203 	4.15072e-22 -0.0145852 	0.000406182 	2.48003e-22 -0.014294 	0.000481121 	-9.21101e-24 -0.0145914 	0.00044732 	9.30262e-23 -0.0146819 	0.000455403 	1.53378e-22 -0.0145385 	0.000514783 	1.62978e-22 -0.0143388 	0.0005932 	1.24335e-22 -0.0140851 	0.000691934 	3.48913e-23 -0.0143512 	0.000636623 	2.56084e-23 -0.014325 	0.000651458 	1.38381e-23 -0.0141485 	0.000706741 	6.98856e-25 -0.0139706 	0.000778744 	-1.00926e-23 -0.0137621 	0.000898264 	-1.39472e-23 -0.0139892 	0.000826611 	-1.05332e-23 -0.0138273 	0.00086469 	-1.9641e-23 -0.0136315 	0.000917655 	-3.03482e-23 -0.0134511 	0.000972294 	-4.11332e-23 -0.0132936 	0.00110305 	-5.51214e-23 -0.0133953 	0.001049 	-1.29839e-22 -0.0131787 	0.00109981 	-1.06568e-22 -0.0129769 	0.00115261 	-8.27839e-23 -0.0127905 	0.00120749 	-5.84639e-23 -0.0126553 	0.00130923 	9.08125e-24 -0.0126149 	0.00129815 	-4.0071e-23 -0.0124391 	0.00134099 	-2.85433e-23 -0.0122733 	0.00138548 	-1.64385e-23 -0.0121179 	0.00143168 	-3.73588e-24 -0.0120071 	0.00146843 	6.4696e-24 -0.0119721 	0.00148152 	1.01235e-23 -0.011938 	0.00149475 	1.38222e-23 -0.0119046 	0.0015081 	1.75663e-23 -0.011872 	0.00152159 	2.13558e-23 -0.0118042 	0.00156446 	7.89133e-24 -0.0115788 	0.00159129 	5.95651e-24 -0.0113855 	0.0016485 	6.84737e-24 -0.0112073 	0.00170881 	7.71089e-24 -0.0110449 	0.00177236 	8.54588e-24 -0.0107008 	0.00202141 	4.61745e-23 -0.0103742 	0.00190747 	3.4244e-22 -0.0101958 	0.0019591 	4.19173e-22 -0.0100414 	0.00202526 	4.84034e-22 -0.0097883 	0.00221593 	3.95197e-22 -0.00946422 	0.00253364 	1.6366e-22 -0.00917744 	0.00244711 	4.06592e-22 -0.00888907 	0.0023599 	6.49508e-22 -0.00859423 	0.00245638 	6.62871e-22 -0.00833343 	0.00274916 	4.50046e-22 -0.00811695 	0.00306908 	2.38346e-22 -0.00790589 	0.00302262 	4.28166e-22 -0.0076353 	0.00307932 	4.61138e-22 -0.0073477 	0.00320781 	3.99445e-22 -0.00709247 	0.00335518 	3.34568e-22 -0.00694639 	0.00346617 	2.8935e-22 -0.00690276 	0.00350241 	2.77145e-22 -0.00686042 	0.00353949 	2.64816e-22 -0.00681936 	0.00357741 	2.52362e-22 -0.00676572 	0.00362598 	2.51e-22 -0.00670486 	0.00368239 	2.55111e-22 -0.00632488 	0.00375067 	1.70212e-22 -0.00606881 	0.00392116 	9.2766e-23 -0.00584179 	0.00412069 	1.83346e-23 -0.00558127 	0.00438867 	2.4747e-23 -0.00531092 	0.00477012 	3.03747e-23 -0.00525111 	0.00481117 	1.75361e-23 -0.00519438 	0.0048551 	4.6913e-24 -0.00513956 	0.00490244 	2.80201e-23 -0.00508723 	0.00495303 	7.21654e-23 -0.00504326 	0.00500094 	1.11676e-22 -0.00475219 	0.0051844 	1.12162e-22 -0.00449227 	0.00540532 	1.07155e-22 -0.00427046 	0.00563229 	9.66185e-23 -0.00408495 	0.00586036 	8.1017e-23 -0.00383007 	0.00627682 	4.8549e-23 -0.00381437 	0.00630353 	8.01256e-23 -0.00379903 	0.00633071 	1.1143e-22 -0.00378404 	0.00635837 	1.42463e-22 -0.00378409 	0.00637848 	7.64977e-23 -0.00378601 	0.0063974 	3.4414e-25 -0.00342626 	0.00656422 	-6.16362e-22 -0.00322671 	0.00690358 	-1.01936e-21 -0.0030802 	0.00729895 	-1.3731e-21 -0.00316523 	0.0075757 	-1.08709e-21 -0.00323502 	0.00779847 	-8.60569e-22 -0.00283529 	0.00813846 	-5.67443e-22 -0.00258133 	0.00843743 	-3.30101e-22 -0.00249468 	0.00862684 	-1.75805e-22 -0.00241693 	0.00884001 	-1.70571e-23 -0.00255073 	0.00918479 	1.08359e-23 -0.00238448 	0.00942843 	8.65045e-25 -0.00233671 	0.00953589 	0 -0.00230161 	0.00963487 	0 -0.00226811 	0.00973884 	0 -0.00221813 	0.00990908 	0 -0.00218135 	0.010044 	0 -0.00214677 	0.0101863 	0 -0.00211431 	0.0103355 	0 -0.0020839 	0.0104916 	0 -0.00213915 	0.0104452 	0 -0.00191886 	0.0105487 	0 -0.0018514 	0.010871 	0 -0.00179226 	0.0112247 	0 -0.00179446 	0.0114494 	0 -0.00194781 	0.0112373 	0 -0.0016483 	0.0113792 	0 -0.00142767 	0.0116621 	0 -0.00138445 	0.0121455 	0 -0.0015559 	0.0119587 	0 -0.00173448 	0.011641 	0 -0.00141532 	0.0119031 	0 -0.0011131 	0.0122886 	0 -0.00108592 	0.0124188 	0 -0.00130624 	0.0120814 	0 -0.00150785 	0.0116507 	0 -0.00117296 	0.012048 	0 -0.000857754 	0.0126081 	0 -0.000817977 	0.01229 	0 -0.00105985 	0.0118696 	0 -0.00128117 	0.011323 	0 -0.000934814 	0.0118674 	0 -0.000697564 	0.0122262 	0 -0.000673777 	0.0118093 	0 -0.000819022 	0.0113042 	0 -0.00105657 	0.0106445 	0 -0.000703295 	0.011344 	0 -0.00056493 	0.0113702 	0 -0.000543804 	0.010945 	0 -0.000594275 	0.0104457 	0 -0.000844192 	0.00968254 	0 -0.000488741 	0.0105413 	0 -0.000442586 	0.010228 	0 -0.000424185 	0.00980272 	0 -0.000405784 	0.00937748 	0 -0.000653576 	0.00853272 	0 -0.000349084 	0.00926881 	0 -0.00033335 	0.00885105 	0 -0.000317617 	0.0084333 	0 -0.000301883 	0.00801555 	0 -0.000482739 	0.00716904 	0 -0.000250279 	0.00762777 	0 -0.000237 	0.00722307 	0 -0.000223721 	0.00681836 	0 -0.000210442 	0.00641366 	0 -0.000334163 	0.00562412 	2.78647e-37 -0.000166887 	0.00579887 	0 -0.000155672 	0.00540918 	0 -0.000144457 	0.00501948 	0 -0.000133242 	0.00462979 	0 -0.000209046 	0.00394384 	2.81733e-40 -9.86142e-05 	0.00383103 	0 -8.88671e-05 	0.00345237 	0 -7.912e-05 	0.00307371 	0 -6.93728e-05 	0.00269504 	0 -0.000103975 	0.00214516 	-8.9884e-38 -4.80514e-05 	0.00199964 	0 -4.20904e-05 	0.00175157 	0 -3.61295e-05 	0.00150351 	0 -3.01685e-05 	0.00125545 	0 -1.47201e-05 	0.000317068 	0 -7.14864e-06 	0.000295235 	0 -6.21581e-06 	0.00025671 	0 -5.28299e-06 	0.000218185 	0 -4.35016e-06 	0.000179659 	0 0 	0 	0
-0.0281077 	6.04057e-05 	0 -0.0283186 	0.000186827 	0 -0.0284215 	0.000286683 	-9.13032e-25 -0.028399 	0.000357083 	-2.83803e-24 -0.0282153 	0.000478236 	-2.34198e-23 -0.0279058 	0.000642146 	-5.9655e-23 -0.0280329 	0.000711589 	-2.94666e-22 -0.02809 	0.000779872 	-4.40663e-22 -0.0280336 	0.00084616 	-4.48791e-22 -0.0277611 	0.00100063 	-3.08108e-22 -0.0273919 	0.00120288 	-8.93225e-23 -0.0274368 	0.00122076 	-1.4732e-22 -0.0274556 	0.00124817 	-1.917e-22 -0.0273707 	0.00131137 	-1.84358e-22 -0.0269879 	0.00152019 	-9.69735e-23 -0.0265818 	0.00175747 	4.07764e-24 -0.0265519 	0.00173195 	9.01733e-23 -0.0265189 	0.00170606 	1.76294e-22 -0.0263696 	0.00178752 	1.65271e-22 -0.0259131 	0.00205082 	7.76589e-23 -0.0254935 	0.0023198 	-9.916e-24 -0.0254005 	0.00226119 	-1.19341e-22 -0.025301 	0.00220159 	-2.28793e-22 -0.0250091 	0.002316 	-2.24242e-22 -0.0245589 	0.00260585 	-1.06546e-22 -0.0241485 	0.00290332 	1.15039e-23 -0.0240064 	0.00282349 	1.33456e-22 -0.0238565 	0.00274215 	2.55372e-22 -0.0233634 	0.0029003 	2.66262e-22 -0.0229371 	0.003195 	1.97244e-22 -0.0225561 	0.00351777 	1.17251e-22 -0.02238 	0.00342938 	2.36483e-22 -0.0220128 	0.00348883 	2.6713e-22 -0.0215323 	0.00365495 	2.3666e-22 -0.0210787 	0.00383016 	2.05151e-22 -0.0207424 	0.00417263 	7.9556e-23 -0.0205507 	0.00413813 	7.31767e-23 -0.0201751 	0.00427351 	1.01233e-22 -0.0198169 	0.00441574 	1.29736e-22 -0.0194768 	0.00456513 	1.58704e-22 -0.0192422 	0.00467975 	1.80222e-22 -0.0191481 	0.00473192 	1.82219e-22 -0.0190559 	0.00478489 	1.84156e-22 -0.0189658 	0.00483867 	1.86033e-22 -0.0188777 	0.00489328 	1.87849e-22 -0.0187265 	0.00499452 	1.95365e-22 -0.0182482 	0.00513604 	1.7683e-22 -0.0178475 	0.00533947 	1.81018e-22 -0.0174767 	0.00555733 	1.83049e-22 -0.0170622 	0.00584524 	2.01035e-22 -0.0165128 	0.00628254 	2.55048e-22 -0.0160509 	0.0064006 	1.44496e-22 -0.0156178 	0.00653616 	3.31696e-23 -0.0150869 	0.00678491 	0 -0.0146526 	0.00719412 	3.62089e-23 -0.0142402 	0.00767588 	7.37158e-23 -0.0141052 	0.00774359 	3.16213e-23 -0.0139618 	0.00782377 	0 -0.0137845 	0.0079353 	0 -0.0136142 	0.00805184 	0 -0.0134767 	0.00815432 	0 -0.013163 	0.00840059 	0 -0.0128716 	0.00866533 	0 -0.0126033 	0.00894884 	0 -0.0122773 	0.00926394 	0 -0.0119175 	0.00965995 	0 -0.0115874 	0.00990901 	0 -0.0112885 	0.0101864 	0 -0.0109766 	0.0104725 	0 -0.0106841 	0.010782 	0 -0.0104989 	0.0110247 	0 -0.0102844 	0.0112844 	0 -0.0100835 	0.0115582 	0 -0.00988074 	0.0118176 	-1.43762e-23 -0.00967916 	0.0120682 	-4.00329e-23 -0.00944219 	0.0123991 	-7.22025e-23 -0.00920958 	0.0126796 	-7.70687e-23 -0.00899722 	0.0129831 	-8.27478e-23 -0.0088095 	0.0132931 	-1.07675e-22 -0.00866653 	0.013535 	-2.35638e-22 -0.00855675 	0.0137549 	-3.44828e-22 -0.00805885 	0.0143349 	-5.39503e-22 -0.00761972 	0.0149681 	-7.0266e-22 -0.00730936 	0.0154225 	-4.60905e-22 -0.00703264 	0.0159242 	-2.23103e-22 -0.00687899 	0.0165533 	6.73508e-23 -0.0068043 	0.0167162 	1.58091e-22 -0.00674243 	0.0168475 	1.87545e-22 -0.00669172 	0.0169509 	1.63082e-22 -0.00664212 	0.017056 	1.38952e-22 -0.00658606 	0.0171793 	1.11454e-22 -0.00637102 	0.0176316 	1.09446e-22 -0.00617703 	0.0181193 	1.08461e-22 -0.00600291 	0.0186402 	1.08438e-22 -0.0059351 	0.0190698 	1.16437e-22 -0.00603839 	0.0192713 	1.37163e-22 -0.00550789 	0.0198637 	8.69694e-23 -0.00501117 	0.0205387 	3.90434e-23 -0.0049333 	0.0212813 	1.96105e-22 -0.00514453 	0.0216175 	3.94518e-22 -0.00533467 	0.0219149 	5.77909e-22 -0.00479161 	0.0227346 	2.63313e-22 -0.00433965 	0.0235443 	0 -0.00424393 	0.0238355 	0 -0.00436743 	0.0241862 	3.12176e-25 -0.00462255 	0.024538 	8.13174e-25 -0.00407174 	0.025604 	6.21911e-26 -0.0039405 	0.0259971 	0 -0.00385137 	0.0263493 	0 -0.00376702 	0.0267241 	0 -0.0039167 	0.0271032 	-1.35741e-22 -0.00364774 	0.0277627 	0 -0.00358574 	0.0280271 	0 -0.00352598 	0.0283034 	0 -0.00346841 	0.0285915 	0 -0.00338032 	0.029067 	0 -0.0033638 	0.0291678 	0 -0.00334748 	0.0292696 	0 -0.00333136 	0.0293725 	0 -0.00331543 	0.0294765 	0 -0.00333189 	0.0294474 	0 -0.00320692 	0.0298761 	0 -0.00312498 	0.0303198 	0 -0.00304718 	0.030789 	0 -0.00297336 	0.0312825 	0 -0.00307739 	0.0310035 	0 -0.0027989 	0.0316256 	0 -0.00272051 	0.0321258 	0 -0.00264592 	0.0326521 	0 -0.00257598 	0.0331985 	0 -0.00281272 	0.0322608 	0 -0.00245727 	0.0331196 	0 -0.00233271 	0.0337321 	0 -0.00226095 	0.0343079 	0 -0.0023031 	0.0343139 	0 -0.00254511 	0.0332276 	0 -0.00219216 	0.0342453 	0 -0.00196796 	0.0351171 	0 -0.0018996 	0.0357332 	0 -0.00204114 	0.0351715 	0 -0.00228546 	0.0339408 	0 -0.00193928 	0.035113 	0 -0.00163777 	0.0363095 	7.40892e-38 -0.00157491 	0.0369564 	6.19737e-37 -0.00180201 	0.0358235 	1.16687e-36 -0.00204717 	0.0344548 	1.70706e-36 -0.00171125 	0.0357739 	1.10244e-36 -0.00138306 	0.0372273 	5.04058e-37 -0.00134297 	0.0376871 	7.61853e-40 -0.00159671 	0.0362865 	1.62889e-39 -0.00184388 	0.0347865 	2.48501e-39 -0.00152045 	0.0362434 	1.53935e-39 -0.00120423 	0.0378401 	6.03122e-40 -0.00117893 	0.0380949 	-3.65634e-37 -0.00143966 	0.036577 	-9.18324e-37 -0.001694 	0.0349498 	-1.46443e-36 -0.00138368 	0.0365373 	-8.66994e-37 -0.00108021 	0.0382696 	-2.75331e-37 -0.00107105 	0.0383485 	0 -0.00135034 	0.0367147 	0 -0.00162287 	0.0349563 	0 -0.00132461 	0.0366743 	0 -0.00103323 	0.0385439 	0 -0.00103559 	0.0384475 	0 -0.00135369 	0.0366872 	0 -0.00166352 	0.0347756 	0 -0.00137536 	0.0366419 	0 -0.0010948 	0.0386707 	0 -0.00109097 	0.0383456 	0 -0.00147956 	0.0364236 	0 -0.00185605 	0.0343019 	0 -0.00157755 	0.0363712 	0 -0.00132317 	0.0384342 	0 -0.00129964 	0.0377507 	0 -0.00174983 	0.0357053 	0 -0.00223268 	0.0332512 	0 -0.00197096 	0.0356548 	0 -0.00177808 	0.0371748 	0 -0.00172791 	0.0361259 	0 -0.00212895 	0.0340051 	0 -0.00276148 	0.0309797 	0 -0.00254409 	0.0340079 	0 -0.00238816 	0.0343078 	0 -0.00226706 	0.0325681 	0 -0.00239271 	0.0302927 	0 -0.00320033 	0.02628 	0 -0.00309976 	0.0305493 	0 -0.00280264 	0.0277695 	0 -0.00249887 	0.0247596 	0 -0.00219509 	0.0217497 	0 -0.00273769 	0.0166706 	0 -0.00263546 	0.0189621 	0 -0.00207576 	0.0149351 	0 -0.00151606 	0.0109081 	0 -0.00095636 	0.00688102 	0 0 	0 	0
-0.0408161 	8.47877e-05 	0 -0.0407833 	0.000283 	-2.64802e-23 -0.0407005 	0.000501579 	-6.04598e-23 -0.0406371 	0.000720679 	-9.46194e-23 -0.040593 	0.000940296 	-1.28959e-22 -0.040527 	0.00115175 	-1.63797e-22 -0.040383 	0.00133545 	-2.05932e-22 -0.0402036 	0.0015406 	-2.12888e-22 -0.0400428 	0.0017472 	-2.18849e-22 -0.0399006 	0.00195528 	-2.23803e-22 -0.039871 	0.00200556 	-2.24748e-22 -0.0398543 	0.00203775 	-2.26142e-22 -0.0398381 	0.00206997 	-2.27526e-22 -0.0398223 	0.00210224 	-2.28899e-22 -0.039807 	0.00213453 	-2.30263e-22 -0.0397806 	0.00217248 	-2.32951e-22 -0.0395164 	0.00236741 	-1.95356e-22 -0.0392658 	0.00256367 	-1.57974e-22 -0.0390343 	0.00276246 	-1.20282e-22 -0.0388223 	0.00296381 	-8.22743e-23 -0.0385186 	0.00322556 	-5.00552e-23 -0.0382204 	0.00340894 	-8.45151e-23 -0.0379125 	0.00360025 	-7.76627e-23 -0.0376239 	0.00379508 	-7.12213e-23 -0.037355 	0.00399348 	-6.52003e-23 -0.0368513 	0.00433606 	4.06542e-23 -0.0365092 	0.00448101 	1.08993e-22 -0.036166 	0.0046738 	1.3599e-22 -0.0358428 	0.00487122 	1.63601e-22 -0.0354405 	0.00513183 	1.59408e-22 -0.0348294 	0.00553788 	7.99613e-23 -0.0344334 	0.0056624 	4.71424e-23 -0.034059 	0.00580794 	2.39313e-23 -0.033724 	0.00601579 	3.44102e-23 -0.0330977 	0.00642623 	6.18308e-23 -0.0324998 	0.00685897 	8.9215e-23 -0.0320805 	0.0069828 	4.83015e-23 -0.0316778 	0.00711301 	7.2201e-24 -0.0310476 	0.0074134 	0 -0.030462 	0.00785179 	1.38978e-23 -0.0299087 	0.00831895 	2.7959e-23 -0.0294969 	0.00846034 	3.9871e-24 -0.0288793 	0.00876873 	0 -0.0282518 	0.00912672 	0 -0.0276642 	0.00950539 	0 -0.0271694 	0.0098682 	0 -0.0271558 	0.00988027 	0 -0.0271423 	0.00989235 	0 -0.0271288 	0.00990446 	0 -0.027113 	0.00991786 	0 -0.0270923 	0.00993386 	0 -0.0264619 	0.0103065 	0 -0.0258785 	0.0107103 	0 -0.0253374 	0.0111406 	0 -0.024742 	0.0116456 	0 -0.0240006 	0.0123021 	0 -0.0233965 	0.0126764 	0 -0.0228183 	0.0130927 	0 -0.0221148 	0.0136113 	0 -0.0214744 	0.0141754 	0 -0.0208493 	0.0148394 	0 -0.0208419 	0.0148493 	0 -0.0208345 	0.0148593 	0 -0.0208269 	0.0148693 	0 -0.0208168 	0.0148796 	0 -0.0208068 	0.0148899 	0 -0.0200746 	0.0154811 	0 -0.0194154 	0.0161381 	0 -0.0188045 	0.0168496 	7.32379e-25 -0.0181327 	0.0175779 	6.64461e-24 -0.0173427 	0.0186216 	1.44549e-23 -0.0172632 	0.0187286 	1.44902e-23 -0.0171853 	0.0188371 	1.45306e-23 -0.0171045 	0.0189389 	1.04071e-23 -0.017019 	0.0190306 	3.07906e-25 -0.0169388 	0.0191194 	-9.31771e-24 -0.0161894 	0.019922 	1.4811e-23 -0.0155167 	0.0208119 	4.26578e-23 -0.0148915 	0.021637 	-1.87171e-23 -0.0143696 	0.022483 	-1.55824e-22 -0.0140274 	0.0232565 	-2.86561e-22 -0.0139249 	0.0234688 	-3.71875e-22 -0.0138245 	0.0236773 	-4.38205e-22 -0.0137243 	0.0238393 	-3.59243e-22 -0.0136261 	0.0240038 	-2.80883e-22 -0.0135186 	0.0241904 	-1.93852e-22 -0.0131141 	0.0248503 	9.71816e-23 -0.0127466 	0.0255564 	3.79761e-22 -0.0124144 	0.0263061 	6.54122e-22 -0.0121971 	0.0268467 	4.69137e-22 -0.0120458 	0.0272844 	1.80505e-22 -0.011438 	0.0282862 	-4.14537e-23 -0.0108804 	0.0293661 	-2.66523e-22 -0.0105213 	0.030041 	8.5079e-23 -0.0103277 	0.0307657 	8.48981e-22 -0.0102433 	0.0314645 	1.74223e-21 -0.00989592 	0.0323107 	2.42308e-21 -0.00966074 	0.0328838 	2.16474e-21 -0.00946541 	0.0333888 	1.63658e-21 -0.00928021 	0.0339127 	1.11979e-21 -0.00902046 	0.0347152 	3.70916e-22 -0.00895025 	0.034958 	2.78157e-22 -0.00888173 	0.0352041 	1.85595e-22 -0.00881486 	0.0354534 	9.32271e-23 -0.00875183 	0.0357019 	2.789e-24 -0.00880487 	0.0357446 	2.92727e-24 -0.00835696 	0.0366109 	-1.02519e-22 -0.00810593 	0.0375358 	-3.13454e-22 -0.00787537 	0.0385045 	-5.28293e-22 -0.00776759 	0.0393048 	-7.46564e-22 -0.00799802 	0.0394525 	-9.5988e-22 -0.0073642 	0.0405394 	-6.33685e-22 -0.00683035 	0.0416971 	-1.1255e-22 -0.00664777 	0.0428284 	1.26179e-21 -0.00693393 	0.0429895 	2.33653e-21 -0.00720389 	0.0431174 	3.37457e-21 -0.00656369 	0.044422 	1.90198e-21 -0.00594901 	0.0458238 	4.49467e-22 -0.00580372 	0.0464518 	7.45166e-25 -0.00612109 	0.0465832 	3.51244e-24 -0.00642269 	0.0466763 	6.20338e-24 -0.00578039 	0.0481947 	2.62745e-24 -0.00529184 	0.0494755 	0 -0.00519336 	0.0498526 	0 -0.00534215 	0.0500553 	-3.04943e-21 -0.00566619 	0.0500956 	-8.30011e-21 -0.00502664 	0.0518178 	-1.69165e-21 -0.00479193 	0.0525581 	0 -0.00469681 	0.0529631 	0 -0.00461073 	0.0533803 	-1.56e-25 -0.00494871 	0.0533491 	-1.03955e-23 -0.00439999 	0.0550066 	0 -0.00430694 	0.0554125 	0 -0.00421617 	0.0558382 	0 -0.00412763 	0.0562833 	0 -0.00428301 	0.0563987 	2.43774e-21 -0.00393641 	0.0575878 	3.15952e-37 -0.00385046 	0.0580081 	9.26006e-37 -0.00376645 	0.0584476 	1.53501e-36 -0.00368435 	0.0589059 	2.14299e-36 -0.00368783 	0.0592315 	2.85356e-36 -0.00355277 	0.0597852 	3.1056e-36 -0.00350831 	0.060036 	2.62672e-36 -0.00346441 	0.060293 	2.15015e-36 -0.00342107 	0.0605562 	1.67588e-36 -0.00336527 	0.0609072 	1.06046e-36 -0.00333888 	0.0610809 	8.37562e-37 -0.00331271 	0.0612569 	6.1478e-37 -0.00328674 	0.0614352 	3.92114e-37 -0.00326098 	0.0616157 	1.69564e-37 -0.00326502 	0.0615977 	4.4003e-39 -0.00317944 	0.0621268 	-4.79045e-37 -0.00312374 	0.0625671 	-1.02069e-36 -0.00306922 	0.0630218 	-1.56309e-36 -0.00301585 	0.0634906 	-2.10621e-36 -0.00306465 	0.0632285 	-2.64932e-36 -0.00293346 	0.0640802 	-2.05189e-36 -0.0029093 	0.0645361 	-1.45592e-36 -0.00288582 	0.0650007 	-8.60325e-37 -0.00286299 	0.0654738 	-2.65101e-37 -0.00300171 	0.0646563 	0 -0.00283043 	0.0658724 	0 -0.00285808 	0.066362 	0 -0.00288563 	0.0668502 	0 -0.00291308 	0.0673371 	0 -0.00315297 	0.0659125 	0 -0.00292914 	0.067555 	0 -0.00304066 	0.0681131 	0 -0.00315068 	0.0686529 	0 -0.00325923 	0.0691749 	0 -0.00362507 	0.0669954 	0 -0.00334657 	0.0690647 	0 -0.00354758 	0.0698661 	0 -0.00378861 	0.070507 	0 -0.00407876 	0.0704071 	0 -0.00455153 	0.0677856 	0 -0.00428981 	0.0701892 	0 -0.00446952 	0.0716727 	0 -0.00491399 	0.0725008 	0 -0.0054462 	0.0712429 	0 -0.00605537 	0.0679321 	0 -0.00583798 	0.0709603 	0 -0.00584238 	0.0736736 	0 -0.0065912 	0.0748428 	0 -0.0073702 	0.0711956 	0 -0.00811227 	0.0666154 	0 -0.00801171 	0.0708846 	0 -0.00793529 	0.0753573 	0 -0.00857835 	0.0751403 	0 -0.00942107 	0.0687932 	0 -0.0101614 	0.0618755 	0 -0.0103311 	0.0686841 	0 -0.0105612 	0.0758729 	0 -0.00985263 	0.0708898 	0 -0.0101777 	0.0612085 	0 -0.0104677 	0.0501747 	0 -0.0111587 	0.062397 	0 -0.0103703 	0.0603439 	0 -0.00886725 	0.0515979 	0 -0.00736422 	0.0428518 	0 -0.00604608 	0.0262867 	0 -0.00662884 	0.0388909 	0 -0.0053866 	0.0316027 	0 -0.00414436 	0.0243146 	0 -0.00290212 	0.0170265 	0 0 	0 	0