# vtk DataFile Version 2.0
track0
ASCII
DATASET POLYDATA
POINTS 41143 float
0.05 8.57988e-20 2.57396e-18
0.05 0.00217391 -1.05592e-17
0.05 0.00217391 -1.05592e-17
0.05 0.00217391 -1.05592e-17
0.05 0.00217391 -1.05592e-17
0.05 0.00217391 -1.05592e-17
0.05 0.00217391 -1.38778e-17
0.0493333 0.00217502 -3.19189e-18
0.0486667 0.00217718 -5.75929e-18
0.048 0.00218093 -5.24979e-18
0.0473334 0.00218784 -7.80683e-18
0.0466667 0.00219732 -5.55112e-18
0.046 0.00220922 -7.35523e-18
0.0453333 0.00222057 -6.45316e-18
0.0446667 0.00223255 -7.76594e-18
0.0440001 0.00224755 -1.34778e-17
0.0433333 0.00226603 -1.80411e-17
0.0426667 0.00228835 -1.22125e-17
0.0419999 0.00230871 -1.23516e-17
0.0413332 0.00232934 -1.32953e-17
0.0406666 0.00235293 -1.50207e-17
0.04 0.00238051 -1.80411e-17
0.0393333 0.00241323 -1.77636e-17
0.0386665 0.00244282 -2.20654e-17
0.0379997 0.00247317 -2.55802e-17
0.0373331 0.00250651 -1.53306e-17
0.0366667 0.00254374 -1.11022e-17
0.036 0.00258731 -1.22125e-17
0.0353331 0.0026268 -1.09609e-17
0.0346663 0.00266858 -1.76093e-17
0.0339997 0.00271356 -2.69428e-17
0.0333333 0.00276187 -2.63678e-17
0.0326667 0.00281731 -2.73392e-17
0.0319998 0.00286968 -1.85958e-17
0.0313331 0.00292546 -2.76025e-17
0.0306668 0.00298482 -1.85519e-17
0.03 0.00304796 -1.66533e-17
0.0294499 0.00310503 -2.12884e-17
0.0288998 0.00316182 -2.31478e-17
0.0283499 0.00322128 -2.09961e-17
0.0278004 0.0032835 -2.45628e-17
0.0273799 0.00333333 -2.38922e-17
0.0272373 0.00335083 -2.21669e-17
0.0270946 0.00336854 -2.80743e-17
0.026952 0.00338645 -2.14916e-17
0.0268095 0.00340457 -2.46233e-17
0.0266667 0.00342293 -2.6144e-17
0.026 0.00351158 -3.42492e-17
0.0253338 0.00360344 -3.12442e-17
0.0246682 0.00370012 -3.03256e-17
0.0240034 0.00380181 -3.09532e-17
0.0233333 0.00390969 -3.56543e-17
0.0226667 0.00403607 -4.34975e-17
0.0219994 0.00415921 -4.37026e-17
0.0213331 0.00428766 -4.28109e-17
0.0206681 0.00442224 -4.0603e-17
0.02 0.00457405 -3.32139e-17
0.0193333 0.00475313 -3.70849e-17
0.0186665 0.00493157 -4.27711e-17
0.0179995 0.00510933 -4.04062e-17
0.017336 0.00529971 -3.67213e-17
0.0166667 0.00552125 -3.88578e-17
0.0160625 0.00575034 -3.17974e-17
0.0154591 0.00598164 -3.25068e-17
0.0148599 0.00622369 -3.74014e-17
0.0142678 0.00648235 -3.65683e-17
0.0138779 0.00666667 -3.69891e-17
0.013769 0.00672094 -4.23588e-17
0.0136604 0.00677597 -3.52392e-17
0.0135523 0.00683176 -3.92224e-17
0.0134446 0.00688831 -2.77452e-17
0.0133333 0.006948 -3.37752e-17
0.0126667 0.00731505 -4.41009e-17
0.0120123 0.00770365 -3.98908e-17
0.0113733 0.00811686 -4.20858e-17
0.0107514 0.00855558 -4.28129e-17
0.01 0.00914604 -4.30211e-17
0.00980944 0.00931683 -3.97696e-17
0.00962052 0.00948944 -3.79099e-17
0.00943327 0.00966385 -4.30491e-17
0.00924774 0.0098401 -4.07369e-17
0.00908273 0.01 -3.60822e-17
0.00859952 0.0104767 -4.18304e-17
0.00813941 0.0109757 -4.43729e-17
0.00770388 0.0114963 -4.46852e-17
0.007292 0.0120358 -3.91256e-17
0.00666667 0.0129267 -3.60822e-17
0.00661665 0.013008 -3.75533e-17
0.00656693 0.0130895 -3.90239e-17
0.00651752 0.0131712 -3.07795e-17
0.00646841 0.0132531 -3.0201e-17
0.00642045 0.0133333 -3.19189e-17
0.00602286 0.014 -2.60902e-17
0.00566163 0.0146871 -3.17447e-17
0.0053311 0.0153894 -3.07449e-17
0.0050273 0.0161037 -3.1829e-17
0.00479037 0.0166667 -3.07078e-17
0.00451191 0.0173333 -3.34851e-17
0.00427297 0.0180152 -3.19969e-17
0.00406008 0.0187056 -3.49444e-17
0.00385804 0.0193992 -3.42426e-17
0.00369271 0.02 -3.41221e-17
0.00362084 0.0202582 -2.92405e-17
0.00355464 0.020518 -3.28127e-17
0.00349029 0.0207782 -3.01905e-17
0.00342739 0.0210387 -3.10396e-17
0.00333333 0.0214379 -2.98061e-17
0.00324723 0.0218169 -2.09601e-17
0.00316377 0.0221966 -1.83235e-17
0.00308287 0.0225769 -1.56827e-17
0.00300442 0.0229576 -1.72011e-17
0.00292945 0.0233333 -1.80411e-17
0.00279194 0.024 -1.98452e-17
0.00266993 0.0246697 -1.99196e-17
0.00255565 0.0253407 -2.09557e-17
0.00244848 0.0260129 -1.53943e-17
0.0023456 0.0266667 -1.249e-17
0.00222952 0.0273333 -4.57967e-18
0.00213231 0.028003 -3.94765e-18
0.00205075 0.0286748 -7.4815e-19
0.00197491 0.0293472 -3.63582e-18
0.00188997 0.03 -1.11022e-17
0.00179053 0.0306667 -1.29063e-17
0.00171115 0.031336 -9.16381e-18
0.00165084 0.0320074 -8.82649e-18
0.00159262 0.0326789 -1.09276e-17
0.00152224 0.0333333 -1.27816e-17
0.00143621 0.034 -9.14645e-18
0.00137165 0.0346691 -8.15444e-18
0.00132686 0.0353398 -9.93337e-18
0.00128299 0.0360105 -1.14461e-17
0.00122508 0.0366667 -5.85656e-18
0.00115024 0.0373333 -8.16054e-18
0.00109843 0.0380022 -8.45226e-18
0.0010606 0.038672 -1.20131e-17
0.00102277 0.0393418 -5.291e-18
0.000976019 0.04 -4.40096e-18
0.000910747 0.0406667 5.64969e-19
0.000870409 0.0413353 -9.60515e-19
0.000837734 0.0420044 -5.62376e-19
0.000805058 0.0426734 -5.65635e-18
0.000768615 0.0433333 -1.23822e-17
0.000711679 0.044 -8.81797e-18
0.000681936 0.0446684 -3.0756e-18
0.000653741 0.0453369 1.17362e-18
0.000625545 0.0460054 -2.86599e-19
0.000597656 0.0466667 -6.54641e-18
0.000548046 0.0473333 -3.22874e-19
0.000523767 0.0480014 -2.11891e-18
0.000499487 0.0486695 -1.30498e-17
0.000475208 0.0493375 -1.34685e-17
0.000451133 0.05 -1.32413e-17
0.000407941 0.0506667 -1.72633e-17
0.000387051 0.0513344 -1.71574e-17
0.00036616 0.0520021 -1.54773e-17
0.000345269 0.0526699 -1.48546e-17
0.000324512 0.0533333 -1.44182e-17
0.000286831 0.054 -5.26551e-18
0.000268766 0.0546675 -9.32801e-18
0.000250702 0.055335 -8.53757e-18
0.000232637 0.0560025 -9.9961e-18
0.000214662 0.0566667 -1.42353e-17
0.000181471 0.0573333 -6.82477e-18
0.000165559 0.0580006 -9.15644e-18
0.000149646 0.0586679 1.87138e-18
0.000133733 0.0593352 -5.13796e-18
0.000117881 0.06 -1.58409e-18
9.4305e-05 0.0605246 5.92075e-18
8.27725e-05 0.0610496 1.27123e-17
7.124e-05 0.0615746 1.91569e-17
5.97076e-05 0.0620996 1.10751e-17
3.26066e-05 0.0633333 1.79868e-17
2.60853e-05 0.0634864 2.15485e-17
2.27169e-05 0.0636395 2.85746e-17
1.93485e-05 0.0637926 2.88352e-17
1.59801e-05 0.0639458 3.77695e-17
0 0.0646723 3.13731e-17
0.05 0.00434783 5.94331e-18
0.0493333 0.00434873 1.77848e-18
0.0486667 0.0043527 -1.69759e-18
0.048 0.00435906 -5.68996e-18
0.0473334 0.0043671 -4.29642e-19
0.0466667 0.00437804 -3.82146e-18
0.046 0.004393 -3.15248e-18
0.0453334 0.00440962 -4.04603e-19
0.0446668 0.00442789 -4.64825e-18
0.0440003 0.00444779 -4.54879e-18
0.0433333 0.00447158 -4.90776e-18
0.0426667 0.00450059 8.36599e-19
0.042 0.00453005 1.37982e-18
0.0413334 0.00456023 2.98361e-18
0.0406669 0.00459204 -5.18855e-18
0.04 0.00462945 -1.7424e-17
0.0393333 0.00467336 -1.57624e-17
0.0386666 0.00471673 -1.96511e-17
0.0379999 0.00475956 -2.01414e-17
0.0373333 0.00480468 -2.01705e-17
0.0366667 0.00485736 -1.71363e-17
0.036 0.00491794 -2.24253e-17
0.0353332 0.00497725 -2.36685e-17
0.0346663 0.00503527 -2.43548e-17
0.0339998 0.00509698 -2.20789e-17
0.0333333 0.00516768 -2.22045e-17
0.0326667 0.00524782 -2.33147e-17
0.0319998 0.00532626 -2.51183e-17
0.0313327 0.00540297 -2.94025e-17
0.0306664 0.0054857 -2.44011e-17
0.03 0.00557856 -2.498e-17
0.0293333 0.00568258 -2.53964e-17
0.0286664 0.00578483 -2.41469e-17
0.028 0.00589047 -1.85011e-17
0.0273348 0.00600342 -2.39745e-17
0.0266667 0.00612488 -2.08167e-17
0.0261283 0.00623323 -2.1308e-17
0.02559 0.0063417 -2.3881e-17
0.0250529 0.00645561 -2.6716e-17
0.0245169 0.00657521 -2.87124e-17
0.0241275 0.00666667 -3.6017e-17
0.0239686 0.00670537 -4.61608e-17
0.02381 0.00674466 -4.38149e-17
0.0236514 0.00678452 -3.79997e-17
0.023493 0.00682497 -3.35726e-17
0.0233333 0.00686639 -3.50271e-17
0.0226667 0.00704419 -4.50376e-17
0.0220025 0.00723113 -3.70223e-17
0.0213415 0.00742888 -4.6609e-17
0.020684 0.00763795 -4.35835e-17
0.02 0.00787216 -5.1112e-17
0.0193333 0.00812569 -5.1693e-17
0.0186708 0.00838973 -5.42553e-17
0.0180127 0.00866489 -5.63711e-17
0.0173621 0.00895715 -6.00195e-17
0.0166667 0.00929817 -5.41234e-17
0.0164058 0.00943853 -5.45577e-17
0.0161461 0.0095809 -5.32565e-17
0.0158876 0.00972554 -5.56015e-17
0.0156308 0.00987316 -4.8235e-17
0.0154161 0.01 -4.996e-17
0.0149995 0.0102517 -4.52999e-17
0.0145891 0.0105133 -4.47654e-17
0.014185 0.0107847 -4.58273e-17
0.0137878 0.0110659 -5.03295e-17
0.0133333 0.0114077 -4.32838e-17
0.0128563 0.0117928 -5.07544e-17
0.0123896 0.0121904 -4.87561e-17
0.0119337 0.0126003 -4.97108e-17
0.0114894 0.0130227 -5.07726e-17
0.0111805 0.0133333 -4.64905e-17
0.0109444 0.0135805 -4.89885e-17
0.0107137 0.0138327 -5.22339e-17
0.0104883 0.0140897 -5.57587e-17
0.0102684 0.0143513 -4.94055e-17
0.01 0.0146838 -5.75558e-17
0.00969574 0.0150804 -5.87934e-17
0.00940071 0.0154839 -5.92847e-17
0.00911488 0.0158939 -6.16699e-17
0.00883777 0.0163099 -6.19023e-17
0.00860835 0.0166667 -5.55112e-17
0.00822002 0.0172885 -6.11719e-17
0.00785927 0.0179268 -6.41801e-17
0.00752488 0.0185793 -6.5652e-17
0.00720898 0.0192409 -6.15706e-17
0.00687105 0.02 -5.77762e-17
0.00683017 0.0200983 -5.64905e-17
0.00678991 0.0201969 -6.68377e-17
0.00675015 0.0202956 -6.67805e-17
0.00671079 0.0203946 -6.91523e-17
0.00666667 0.0205068 -5.97963e-17
0.00644732 0.0210721 -5.49147e-17
0.00623959 0.0216418 -5.91512e-17
0.00604283 0.0222153 -5.37745e-17
0.00585638 0.0227923 -5.9019e-17
0.00568761 0.0233333 -5.68989e-17
0.00547825 0.024 -5.93969e-17
0.00529137 0.0246733 -5.67018e-17
0.00512587 0.0253522 -5.7629e-17
0.00496824 0.026033 -5.93949e-17
0.00481765 0.0266667 -5.66606e-17
0.00465565 0.0273333 -5.91469e-17
0.00451464 0.0280048 -5.78522e-17
0.00439026 0.0286795 -6.09448e-17
0.00427006 0.0293549 -6.19644e-17
0.00415436 0.03 -6.17357e-17
0.00402963 0.0306667 -6.01402e-17
0.0039241 0.0313366 -6.19018e-17
0.00382287 0.0320073 -5.67723e-17
0.00372527 0.0326785 -6.13594e-17
0.00363353 0.0333333 -6.85011e-17
0.00357349 0.0337542 -6.8741e-17
0.0035184 0.0341758 -6.82942e-17
0.00346464 0.0345975 -6.47268e-17
0.00341219 0.0350194 -7.31726e-17
0.00333333 0.0356698 -7.49401e-17
0.00331008 0.0358692 -7.3591e-17
0.00328708 0.0360686 -7.36293e-17
0.00326435 0.036268 -8.33816e-17
0.00324187 0.0364675 -7.78679e-17
0.00321969 0.0366667 -7.49401e-17
0.00314484 0.0373333 -7.53564e-17
[...]
POINT_DATA 41143
 FIELD attributes 1
U 3 41143 float
-6.4521e-19 	-1.70303e-21 	0
-0.015238 	2.53272e-05 	0 -0.015238 	2.53272e-05 	0 -0.015238 	2.53272e-05 	0 -0.015238 	2.53272e-05 	0 -0.015238 	2.53272e-05 	0 -0.015238 	2.53272e-05 	0 -0.0155716 	5.04922e-05 	0 -0.0158091 	8.87816e-05 	-3.91968e-25 -0.0157693 	0.00016359 	-1.87507e-24 -0.0155159 	0.000220603 	-3.36513e-24 -0.0151917 	0.000271112 	-4.86104e-24 -0.0155164 	0.000264304 	1.90432e-22 -0.0156991 	0.000282051 	3.21004e-22 -0.0155987 	0.000351002 	3.17167e-22 -0.0153649 	0.000425859 	1.89661e-22 -0.0150695 	0.000504391 	-6.01846e-24 -0.0153716 	0.000469541 	3.44981e-23 -0.0154627 	0.000478529 	5.49248e-23 -0.0153128 	0.000541861 	5.07077e-23 -0.0151084 	0.00062501 	2.71913e-23 -0.014853 	0.000729038 	-1.63887e-23 -0.0151215 	0.000671031 	-1.20243e-23 -0.0150915 	0.000686782 	-2.90822e-23 -0.0149061 	0.000745646 	-5.84497e-23 -0.0147221 	0.000822293 	-8.90814e-23 -0.0145147 	0.000948609 	-1.23147e-22 -0.0147418 	0.000872956 	-9.29817e-23 -0.0145712 	0.000913102 	-8.79053e-23 -0.014365 	0.000969377 	-8.62352e-23 -0.0141752 	0.00102743 	-8.48506e-23 -0.0140209 	0.00116612 	-1.11428e-22 -0.0141191 	0.00110857 	-1.94555e-22 -0.0138907 	0.00116244 	-1.56206e-22 -0.0136779 	0.00121842 	-1.17275e-22 -0.0134816 	0.00127661 	-7.77406e-23 -0.0133453 	0.00138461 	1.0862e-23 -0.0132983 	0.00137262 	-4.69475e-23 -0.0131129 	0.00141797 	-3.34329e-23 -0.0129382 	0.00146507 	-1.9239e-23 -0.0127745 	0.00151398 	-4.34179e-24 -0.0126579 	0.00155285 	7.61894e-24 -0.0126211 	0.00156673 	1.19065e-23 -0.0125851 	0.00158076 	1.6247e-23 -0.01255 	0.00159492 	2.06408e-23 -0.0125157 	0.00160922 	2.50883e-23 -0.012445 	0.00165484 	9.23959e-24 -0.0122061 	0.00168296 	6.85351e-24 -0.0120023 	0.00174348 	7.7735e-24 -0.0118147 	0.00180729 	8.66259e-24 -0.0116439 	0.00187453 	9.51944e-24 -0.011286 	0.00213946 	5.16003e-23 -0.0109348 	0.00201804 	3.82056e-22 -0.0107459 	0.00207171 	4.69003e-22 -0.0105835 	0.00214164 	5.41545e-22 -0.0103197 	0.00234498 	4.40748e-22 -0.00998577 	0.00268235 	1.81833e-22 -0.00967795 	0.00258984 	4.48644e-22 -0.00936852 	0.00249664 	7.15439e-22 -0.00905513 	0.00259815 	7.29619e-22 -0.00878771 	0.00290882 	4.95106e-22 -0.00856743 	0.00324827 	2.61773e-22 -0.00834341 	0.00319848 	4.66267e-22 -0.00806115 	0.00325676 	5.02067e-22 -0.00776287 	0.00339081 	4.34924e-22 -0.0074983 	0.00354439 	3.6441e-22 -0.00734586 	0.00366074 	3.14985e-22 -0.00729808 	0.00370055 	3.00994e-22 -0.00725177 	0.00374132 	2.86856e-22 -0.00720695 	0.00378307 	2.72572e-22 -0.00714863 	0.00383677 	2.70947e-22 -0.0070825 	0.0038994 	2.756e-22 -0.00667767 	0.00396577 	1.82945e-22 -0.00641046 	0.00414483 	9.88075e-23 -0.00617301 	0.00435516 	1.92671e-23 -0.00590335 	0.00463885 	2.61867e-23 -0.00562518 	0.00504165 	3.22686e-23 -0.00556344 	0.00508311 	1.86142e-23 -0.00550483 	0.00512749 	4.95327e-24 -0.00544844 	0.00517585 	3.03168e-23 -0.00539475 	0.0052278 	7.78828e-23 -0.00534947 	0.00527716 	1.20602e-22 -0.00504201 	0.00546831 	1.21461e-22 -0.00476756 	0.00569904 	1.16346e-22 -0.00453315 	0.00593778 	1.05211e-22 -0.0043371 	0.00617867 	8.85417e-23 -0.00406947 	0.00661691 	5.38069e-23 -0.00405265 	0.00664508 	8.91531e-23 -0.00403623 	0.00667378 	1.24195e-22 -0.00402018 	0.00670299 	1.58933e-22 -0.00402047 	0.00672454 	8.47566e-23 -0.00402259 	0.00674495 	4.02154e-25 -0.00363561 	0.00691501 	-6.8092e-22 -0.00342302 	0.00727334 	-1.12577e-21 -0.00327046 	0.00768963 	-1.50669e-21 -0.00336099 	0.00798623 	-1.19424e-21 -0.00343521 	0.00822441 	-9.476e-22 -0.00300844 	0.00858464 	-6.22905e-22 -0.00274324 	0.00889632 	-3.65659e-22 -0.00265011 	0.00909871 	-1.98603e-22 -0.00256668 	0.00932685 	-2.66111e-23 -0.00269636 	0.00968703 	1.79386e-23 -0.00253082 	0.00993031 	1.46151e-24 -0.00248246 	0.0100376 	0 -0.00244686 	0.0101358 	0 -0.00241278 	0.0102388 	0 -0.00236294 	0.0104035 	0 -0.00232002 	0.0105547 	0 -0.00227985 	0.010715 	0 -0.00224232 	0.0108839 	0 -0.00220735 	0.0110613 	0 -0.0022707 	0.0110086 	0 -0.00202308 	0.0111041 	0 -0.00195008 	0.0114504 	0 -0.0018862 	0.011831 	0 -0.00189641 	0.0120504 	0 -0.0020591 	0.0118259 	0 -0.00173848 	0.0119766 	0 -0.00148961 	0.0122694 	0 -0.00144264 	0.0127903 	0 -0.00163461 	0.0125638 	0 -0.00182365 	0.0122251 	0 -0.00148302 	0.0125064 	0 -0.00116078 	0.0129214 	0 -0.00112875 	0.0130193 	0 -0.00136146 	0.012659 	0 -0.00157413 	0.0121985 	0 -0.00121826 	0.0126262 	0 -0.00088362 	0.0132301 	0 -0.00084086 	0.0128563 	0 -0.00109488 	0.0124063 	0 -0.00132712 	0.0118216 	0 -0.000961091 	0.0124077 	0 -0.000720419 	0.012755 	0 -0.000695607 	0.0123157 	0 -0.000836671 	0.0117796 	0 -0.00108426 	0.0110743 	0 -0.000713458 	0.0118261 	0 -0.000577485 	0.0118245 	0 -0.000555806 	0.0113807 	0 -0.000599867 	0.0108623 	0 -0.000858076 	0.0100473 	0 -0.000488003 	0.0109673 	0 -0.000447778 	0.0106166 	0 -0.000429264 	0.0101776 	0 -0.00041075 	0.00973869 	0 -0.000657966 	0.00884178 	0 -0.000349019 	0.00960365 	0 -0.000333557 	0.00917819 	0 -0.000318095 	0.00875274 	0 -0.000302633 	0.00832728 	0 -0.000481779 	0.00743635 	0 -0.000247825 	0.00792125 	0 -0.000235134 	0.0075156 	0 -0.000222443 	0.00710994 	0 -0.000209751 	0.00670429 	0 -0.000332316 	0.00587947 	2.90572e-37 -0.000164793 	0.00608913 	0 -0.000154414 	0.00570564 	0 -0.000144036 	0.00532215 	0 -0.000133657 	0.00493866 	0 -0.00021037 	0.00422553 	2.93155e-40 -9.93311e-05 	0.00416547 	0 -9.06211e-05 	0.00380021 	0 -8.1911e-05 	0.00343496 	0 -7.3201e-05 	0.0030697 	0 -0.000112253 	0.00249776 	-1.05391e-37 -5.09941e-05 	0.00232144 	0 -4.4758e-05 	0.00203755 	0 -3.8522e-05 	0.00175366 	0 -3.2286e-05 	0.00146978 	0 -3.14861e-05 	0.00073888 	0 -1.508e-05 	0.000685577 	0 -1.31327e-05 	0.000597048 	0 -1.11854e-05 	0.000508519 	0 -9.23813e-06 	0.000419991 	0 0 	0 	0
-0.0296366 	4.00785e-05 	0 -0.0298581 	0.000177913 	0 -0.0299669 	0.000285918 	-6.9455e-25 -0.0299451 	0.000361015 	-2.15525e-24 -0.0297579 	0.000488497 	-1.77633e-23 -0.0294406 	0.000660486 	-4.5345e-23 -0.0295725 	0.000737473 	-2.24351e-22 -0.0296313 	0.000812046 	-3.34723e-22 -0.0295734 	0.000882732 	-3.40565e-22 -0.0292937 	0.00104513 	-2.30553e-22 -0.0289127 	0.00125814 	-5.85055e-23 -0.0289564 	0.00127981 	-6.832e-23 -0.028973 	0.00131136 	-7.69801e-23 -0.0288846 	0.00137868 	-8.13744e-23 -0.02849 	0.00159826 	-5.54613e-23 -0.0280695 	0.00184882 	-2.40679e-23 -0.0280329 	0.00182367 	-4.87017e-23 -0.0279933 	0.00179818 	-7.33364e-23 -0.0278389 	0.00188407 	-9.64985e-23 -0.0273648 	0.00216259 	-9.23863e-23 -0.0269299 	0.00244712 	-8.79091e-23 -0.0268255 	0.00238609 	-2.76421e-22 -0.0267144 	0.00232404 	-4.65027e-22 -0.0264096 	0.00244522 	-4.49401e-22 -0.0259421 	0.0027522 	-2.29829e-22 -0.0255168 	0.00306726 	-9.68966e-24 -0.0253598 	0.00298301 	1.52821e-22 -0.0251946 	0.00289718 	3.15263e-22 -0.024677 	0.0030636 	3.28456e-22 -0.0242342 	0.00337734 	2.4079e-22 -0.0238401 	0.00371949 	1.40468e-22 -0.0236468 	0.00362557 	2.79329e-22 -0.0232585 	0.00368693 	3.15491e-22 -0.0227515 	0.00386313 	2.78967e-22 -0.0222732 	0.00404898 	2.41235e-22 -0.0219271 	0.00441363 	9.30855e-23 -0.0217184 	0.0043762 	8.51639e-23 -0.0213192 	0.00452079 	1.16029e-22 -0.0209388 	0.00467277 	1.47411e-22 -0.020578 	0.00483247 	1.79332e-22 -0.0203302 	0.00495469 	2.02994e-22 -0.0202337 	0.00500878 	2.04845e-22 -0.0201393 	0.00506368 	2.06633e-22 -0.0200468 	0.0051194 	2.08356e-22 -0.0199565 	0.00517596 	2.10013e-22 -0.0198015 	0.00528105 	2.18203e-22 -0.019297 	0.00543154 	1.97883e-22 -0.018875 	0.00564676 	2.02133e-22 -0.0184849 	0.00587727 	2.03992e-22 -0.018051 	0.00618152 	2.23344e-22 -0.0174758 	0.0066458 	2.83201e-22 -0.0169861 	0.0067691 	1.6073e-22 -0.016527 	0.00691091 	3.74036e-23 -0.0159679 	0.00717286 	0 -0.0155158 	0.00760823 	4.02901e-23 -0.0150863 	0.00811886 	8.13953e-23 -0.014942 	0.00819012 	3.48667e-23 -0.014789 	0.00827498 	0 -0.0146009 	0.00839379 	0 -0.0144203 	0.008518 	0 -0.0142748 	0.00862717 	0 -0.0139472 	0.00888602 	0 -0.0136432 	0.00916419 	0 -0.0133634 	0.00946197 	0 -0.0130224 	0.00979394 	0 -0.0126466 	0.0102104 	0 -0.012295 	0.0104734 	0 -0.0119771 	0.0107668 	0 -0.0116447 	0.011071 	0 -0.0113338 	0.0114011 	0 -0.0111379 	0.0116597 	0 -0.0109161 	0.0119298 	0 -0.0107083 	0.0122143 	0 -0.0104976 	0.0124843 	-1.84254e-23 -0.0102873 	0.012745 	-5.1533e-23 -0.0100411 	0.0130874 	-9.28364e-23 -0.00978876 	0.0133876 	-9.91821e-23 -0.00955894 	0.0137134 	-1.06639e-22 -0.00935638 	0.0140459 	-1.37637e-22 -0.00920118 	0.0143079 	-2.85703e-22 -0.0090829 	0.0145453 	-4.11599e-22 -0.00856346 	0.0151516 	-6.362e-22 -0.00810438 	0.015814 	-8.26018e-22 -0.00777719 	0.0162888 	-5.29982e-22 -0.00748514 	0.0168128 	-2.39018e-22 -0.00728304 	0.0175158 	1.45559e-22 -0.00721555 	0.0176642 	2.43046e-22 -0.0071592 	0.0177837 	2.72185e-22 -0.00711259 	0.0178775 	2.41062e-22 -0.00706685 	0.0179726 	2.10275e-22 -0.00701602 	0.0180818 	1.75783e-22 -0.0067738 	0.0185764 	1.603e-22 -0.00655622 	0.0191124 	1.46274e-22 -0.00636183 	0.019687 	1.3362e-22 -0.00628865 	0.0201589 	1.3569e-22 -0.00640109 	0.0203832 	1.61173e-22 -0.00583367 	0.0210182 	1.012e-22 -0.00530041 	0.0217414 	4.2312e-23 -0.00520987 	0.0225006 	1.69878e-22 -0.00543279 	0.022862 	3.5577e-22 -0.00563327 	0.0231819 	5.27445e-22 -0.00505314 	0.024062 	2.32981e-22 -0.00458987 	0.0248966 	0 -0.00448569 	0.0252082 	0 -0.0045874 	0.0255768 	2.90426e-25 -0.00485566 	0.0259532 	8.17608e-25 -0.00426838 	0.0270972 	2.95104e-26 -0.00414777 	0.0274789 	0 -0.00405042 	0.027855 	0 -0.00395826 	0.0282556 	0 -0.00408813 	0.028658 	-1.21369e-22 -0.00382903 	0.0292969 	0 -0.00376687 	0.0295515 	0 -0.00370673 	0.029817 	0 -0.00364857 	0.0300931 	0 -0.00356192 	0.0305345 	0 -0.00353722 	0.0306752 	0 -0.00351292 	0.0308181 	0 -0.003489 	0.0309631 	0 -0.00346547 	0.0311103 	0 -0.00348785 	0.0310688 	0 -0.00333941 	0.0315279 	0 -0.00324913 	0.0319968 	0 -0.0031633 	0.0324933 	0 -0.00308174 	0.0330163 	0 -0.00319871 	0.0326709 	0 -0.0028947 	0.033347 	0 -0.00280777 	0.0338709 	0 -0.0027249 	0.0344233 	0 -0.00265546 	0.0349551 	0 -0.00289989 	0.033955 	0 -0.00252981 	0.034875 	0 -0.00238793 	0.0355265 	0 -0.00230756 	0.0361244 	0 -0.00235233 	0.0360891 	0 -0.00259969 	0.0349347 	0 -0.0022357 	0.0360204 	0 -0.00199726 	0.0369471 	0 -0.00191996 	0.0375787 	0 -0.00206328 	0.0369578 	0 -0.00231004 	0.0356559 	0 -0.00195696 	0.0368998 	0 -0.00164741 	0.0381634 	7.60948e-38 -0.00157535 	0.0388167 	6.47934e-37 -0.00180058 	0.0376181 	1.22138e-36 -0.00204483 	0.036178 	1.78797e-36 -0.00170657 	0.0375694 	1.15729e-36 -0.00137569 	0.0390956 	5.32878e-37 -0.00132703 	0.0395636 	7.8258e-40 -0.0015757 	0.0380923 	1.66339e-39 -0.00181836 	0.0365239 	2.53392e-39 -0.00149741 	0.0380501 	1.57816e-39 -0.00118312 	0.039714 	6.3145e-40 -0.00115183 	0.0399863 	-3.96643e-37 -0.00140368 	0.0384014 	-9.75983e-37 -0.00164989 	0.0367118 	-1.54903e-36 -0.00134701 	0.038362 	-9.26214e-37 -0.00105025 	0.0401516 	-3.09011e-37 -0.00103844 	0.040263 	0 -0.00130528 	0.0385683 	0 -0.00156631 	0.0367563 	0 -0.00128052 	0.038527 	0 -0.00100067 	0.0404401 	0 -0.00100562 	0.0403975 	0 -0.00130823 	0.0385845 	0 -0.00160385 	0.0366304 	0 -0.00133324 	0.0385359 	0 -0.00106901 	0.0405902 	0 -0.0010769 	0.04035 	0 -0.00144788 	0.0383835 	0 -0.00180858 	0.0362317 	0 -0.00155287 	0.0383236 	0 -0.00130512 	0.0405782 	0 -0.0012814 	0.0399695 	0 -0.00175778 	0.0377857 	0 -0.00222485 	0.0353126 	0 -0.0019915 	0.0377193 	0 -0.00180397 	0.0395553 	0 -0.0017579 	0.0385452 	0 -0.00221894 	0.0362733 	0 -0.002837 	0.033232 	0 -0.00265387 	0.0362416 	0 -0.00251001 	0.0370133 	0 -0.00239459 	0.0353112 	0 -0.00262764 	0.0328364 	0 -0.00341955 	0.0287814 	0 -0.00335843 	0.0330105 	0 -0.00309256 	0.0309641 	0 -0.00279505 	0.0279853 	0 -0.00249754 	0.0250065 	0 -0.00318444 	0.0196028 	0 -0.00308612 	0.0222313 	0 -0.00242452 	0.0174653 	0 -0.00176291 	0.0126994 	0 -0.00110131 	0.0079334 	0 -0.000166401 	0.000799498 	0 -0.000175447 	0.00101815 	0 -0.000138893 	0.000806019 	0 -0.000102339 	0.000593888 	0 -6.57845e-05 	0.000381758 	0 0 	0 	0
-0.0430761 	4.27432e-05 	0 -0.043045 	0.000254915 	-2.01427e-23 -0.042963 	0.000488178 	-4.59999e-23 -0.0429017 	0.000721951 	-7.19957e-23 -0.0428612 	0.000956229 	-9.81299e-23 -0.0427968 	0.00118098 	-1.24651e-22 -0.0426495 	0.0013768 	-1.53409e-22 -0.0424644 	0.00159573 	-1.53743e-22 -0.0422991 	0.00181618 	-1.53287e-22 -0.0421538 	0.00203816 	-1.52033e-22 -0.0421031 	0.00212895 	-1.51196e-22 -0.0420903 	0.00215582 	-1.51468e-22 -0.0420779 	0.00218271 	-1.51736e-22 -0.0420657 	0.00220963 	-1.51999e-22 -0.0420539 	0.00223658 	-1.52258e-22 -0.0420329 	0.00226814 	-1.53307e-22 -0.0417556 	0.00247584 	-1.25517e-22 -0.0414942 	0.00268509 	-9.77037e-23 -0.0412532 	0.00289702 	-6.97046e-23 -0.041033 	0.00311165 	-4.15173e-23 -0.0407204 	0.00338802 	-1.86339e-23 -0.0404067 	0.00358451 	-3.49414e-24 -0.0400838 	0.00378821 	5.03293e-24 -0.0397814 	0.00399562 	1.37843e-23 -0.0395001 	0.00420681 	2.27645e-23 -0.0389765 	0.00456787 	1.6962e-23 -0.0386156 	0.00472472 	2.11323e-22 -0.0382547 	0.00492961 	2.54922e-22 -0.037915 	0.00513942 	2.99817e-22 -0.0374974 	0.00541332 	2.75007e-22 -0.0368556 	0.00584382 	7.40012e-23 -0.0364363 	0.00597713 	4.75063e-23 -0.0360411 	0.00613401 	3.02919e-23 -0.0356886 	0.00635452 	4.23248e-23 -0.0350355 	0.00678678 	7.49324e-23 -0.0344078 	0.00724563 	1.07826e-22 -0.0339628 	0.00737707 	5.87286e-23 -0.0335357 	0.00751528 	9.42904e-24 -0.0328755 	0.0078315 	7.70811e-26 -0.0322619 	0.00829835 	1.67222e-23 -0.0316818 	0.00879373 	3.32123e-23 -0.0312443 	0.00894275 	5.13187e-24 -0.0305967 	0.00926622 	0 -0.0299344 	0.00964554 	0 -0.0293146 	0.0100468 	0 -0.0287526 	0.0104612 	0 -0.0287459 	0.0104672 	0 -0.0287393 	0.0104733 	0 -0.0287326 	0.0104793 	0 -0.0287248 	0.010486 	0 -0.0287145 	0.010494 	0 -0.0280529 	0.0108913 	0 -0.0274375 	0.0113183 	0 -0.0268672 	0.0117735 	0 -0.0262444 	0.0123058 	0 -0.0254614 	0.0130014 	0 -0.024823 	0.0133955 	0 -0.0242171 	0.0138322 	0 -0.0234725 	0.0143804 	0 -0.022795 	0.0149768 	0 -0.0220972 	0.0157202 	0 -0.0220964 	0.0157209 	0 -0.0220957 	0.0157217 	0 -0.0220947 	0.0157224 	0 -0.0220937 	0.0157232 	0 -0.0220928 	0.015724 	0 -0.0213287 	0.0163526 	0 -0.0206328 	0.0170446 	0 -0.0199925 	0.017796 	-2.76015e-26 -0.0192789 	0.0185647 	-3.25374e-25 -0.0184423 	0.0196635 	-7.17596e-25 -0.018349 	0.0197879 	-7.19371e-25 -0.0182578 	0.0199144 	-7.2146e-25 -0.0181631 	0.0200331 	-6.90624e-24 -0.0180627 	0.0201406 	-2.1645e-23 -0.0179693 	0.0202443 	-3.56259e-23 -0.0171897 	0.0210845 	-3.17118e-23 -0.0164895 	0.0220149 	-2.43863e-23 -0.0158345 	0.0228774 	-5.21475e-23 -0.0152604 	0.0237475 	-1.101e-22 -0.0148587 	0.024643 	-1.88581e-22 -0.0147657 	0.0248376 	-2.52556e-22 -0.0146743 	0.0250284 	-3.0186e-22 -0.0145817 	0.0251763 	-2.39705e-22 -0.0144909 	0.0253261 	-1.77963e-22 -0.0143926 	0.0254933 	-1.10357e-22 -0.0139392 	0.026216 	2.52736e-22 -0.0135286 	0.0269922 	6.0346e-22 -0.0131591 	0.0278191 	9.42187e-22 -0.012917 	0.0284134 	6.47836e-22 -0.0127486 	0.0288956 	2.28145e-22 -0.0121004 	0.0299699 	-1.29464e-22 -0.0115065 	0.0311282 	-4.91905e-22 -0.0111308 	0.0318229 	-9.01641e-23 -0.0108948 	0.0325921 	6.56394e-22 -0.0108007 	0.0333402 	1.62853e-21 -0.0104555 	0.0341855 	2.27339e-21 -0.0102198 	0.034754 	2.03714e-21 -0.0100221 	0.0352548 	1.55419e-21 -0.00983387 	0.0357735 	1.08134e-21 -0.00957411 	0.0365512 	4.09223e-22 -0.00948299 	0.0368547 	3.06659e-22 -0.00939443 	0.0371632 	2.04357e-22 -0.00930838 	0.0374766 	1.02314e-22 -0.00922816 	0.0377887 	2.85963e-24 -0.00929334 	0.0378426 	3.03092e-24 -0.0087808 	0.0387699 	-8.39975e-23 -0.00850897 	0.0397582 	-2.94191e-22 -0.00825913 	0.0407936 	-5.08311e-22 -0.00816352 	0.0416009 	-7.2583e-22 -0.00840237 	0.0417545 	-9.38042e-22 -0.0077279 	0.0429182 	-6.14277e-22 -0.00713099 	0.0441635 	-1.60531e-22 -0.00695283 	0.0453154 	1.24504e-21 -0.00724758 	0.0454773 	2.36767e-21 -0.00752563 	0.045605 	3.45213e-21 -0.00684679 	0.0469969 	1.91985e-21 -0.00619488 	0.0484922 	4.08567e-22 -0.00603475 	0.0491195 	6.5435e-25 -0.00635854 	0.0492426 	3.63926e-24 -0.00666636 	0.0493265 	6.54329e-24 -0.00598818 	0.0509389 	2.70328e-24 -0.00548788 	0.0522535 	0 -0.00538013 	0.0526476 	0 -0.0055108 	0.0528583 	-2.99893e-21 -0.00583777 	0.052878 	-8.50768e-21 -0.00516584 	0.0546958 	-1.61244e-21 -0.00492831 	0.0554376 	0 -0.00482409 	0.0558567 	0 -0.00472253 	0.0562967 	0 -0.00505668 	0.0562333 	-1.07948e-23 -0.00448945 	0.0579485 	0 -0.00438745 	0.0583626 	0 -0.00428781 	0.0587979 	0 -0.00419047 	0.059254 	0 -0.00433624 	0.0593494 	2.53971e-21 -0.00397464 	0.0605767 	3.30265e-37 -0.0038801 	0.0609994 	9.66702e-37 -0.00378755 	0.0614424 	1.60202e-36 -0.00369695 	0.0619056 	2.23625e-36 -0.00369608 	0.0622138 	2.98471e-36 -0.00354299 	0.0628238 	3.24669e-36 -0.00348826 	0.0631003 	2.69745e-36 -0.00343423 	0.063385 	2.15124e-36 -0.00338088 	0.0636778 	1.60805e-36 -0.00330974 	0.0640841 	8.7833e-37 -0.0032867 	0.0642231 	6.94521e-37 -0.00326379 	0.0643635 	5.10791e-37 -0.00324101 	0.0645055 	3.27138e-37 -0.00321836 	0.064649 	1.43562e-37 -0.00321812 	0.0646397 	4.48452e-39 -0.00313359 	0.0651352 	-5.18519e-37 -0.00307067 	0.0655633 	-1.08688e-36 -0.00300892 	0.0660067 	-1.65603e-36 -0.00294832 	0.066465 	-2.22596e-36 -0.00297802 	0.0662642 	-2.79598e-36 -0.00285814 	0.0670719 	-2.17316e-36 -0.00282793 	0.0675067 	-1.55166e-36 -0.00279839 	0.0679507 	-9.30581e-37 -0.00276949 	0.0684039 	-3.09902e-37 -0.00288395 	0.0676772 	0 -0.00273808 	0.068831 	0 -0.00276138 	0.0692898 	0 -0.00278461 	0.0697476 	0 -0.00280778 	0.0702044 	0 -0.00301747 	0.0689161 	0 -0.00283895 	0.0704694 	0 -0.00294865 	0.0709863 	0 -0.00305697 	0.0714848 	0 -0.00316393 	0.0719654 	0 -0.00349361 	0.0699881 	0 -0.00324596 	0.072055 	0 -0.00349329 	0.0726889 	0 -0.00373642 	0.0732756 	0 -0.0040029 	0.0734361 	0 -0.0044614 	0.0708108 	0 -0.00422805 	0.0732175 	0 -0.00450615 	0.0744651 	0 -0.00495759 	0.0752217 	0 -0.00546742 	0.074348 	0 -0.00606539 	0.0710487 	0 -0.00588227 	0.0740584 	0 -0.00604507 	0.076446 	0 -0.00680503 	0.0775181 	0 -0.00756981 	0.0744638 	0 -0.00830536 	0.0699039 	0 -0.00824423 	0.074133 	0 -0.00820369 	0.0785394 	0 -0.00907819 	0.0787848 	0 -0.00990875 	0.0724283 	0 -0.0106441 	0.0655232 	0 -0.0108545 	0.0722745 	0 -0.0111182 	0.0793634 	0 -0.0105722 	0.0757135 	0 -0.0110409 	0.0654318 	0 -0.0113136 	0.054358 	0 -0.0120379 	0.0665165 	0 -0.0115209 	0.0668574 	0 -0.0100133 	0.0581085 	0 -0.00850564 	0.0493596 	0 -0.00720958 	0.0312885 	0 -0.00791643 	0.0462863 	0 -0.00643052 	0.0375984 	0 -0.0049446 	0.0289104 	0 -0.00345869 	0.0202225 	0 0 	0 	0