# vtk DataFile Version 2.0
track0
ASCII
DATASET POLYDATA
POINTS 22176 float
0.05 8.57988e-20 2.57396e-18
0.05 0.00217391 -1.05592e-17
0.05 0.00217391 -1.05592e-17
0.05 0.00217391 -1.05592e-17
0.05 0.00217391 -1.05592e-17
0.05 0.00217391 -1.05592e-17
0.05 0.00217391 -1.38778e-17
0.0493333 0.00217869 -6.66134e-18
0.0486667 0.00218366 -3.33067e-18
0.048 0.00218943 -8.9883e-19
0.0473334 0.00219765 -8.8427e-19
0.0466667 0.00220834 6.93889e-18
0.046 0.00222161 -4.16334e-19
0.0453333 0.00223381 -2.2898e-18
0.0446666 0.00224616 9.30289e-19
0.044 0.00226092 -2.28648e-18
0.0433333 0.00227885 -6.93889e-18
0.0426667 0.00230057 -3.19189e-18
0.0419999 0.00232009 -5.55565e-19
0.0413332 0.00233961 1.6725e-19
0.0406665 0.00236158 2.3051e-19
0.04 0.00238711 -6.93889e-18
0.0393333 0.00241759 -1.80411e-18
0.0386665 0.00244488 1.39008e-19
0.0379997 0.00247269 -1.29491e-18
0.0373331 0.0025031 6.90791e-18
0.0366667 0.00253699 2.77556e-18
0.036 0.00257695 5.82867e-18
0.0353331 0.00261288 8.46774e-18
0.0346663 0.00265074 8.58038e-18
0.0339997 0.00269148 1.02846e-17
0.0333333 0.00273519 1.52656e-17
0.0326667 0.00278589 1.36002e-17
0.0319997 0.00283318 2.0262e-17
0.0313331 0.00288366 1.81245e-17
0.0306666 0.00293745 1.67573e-17
0.03 0.00299472 2.498e-17
0.0293333 0.00305817 2.26208e-17
0.0286666 0.00312116 1.26289e-17
0.0280003 0.00318793 2.00199e-17
0.0273343 0.00325864 2.59675e-17
0.0266698 0.00333333 1.94367e-17
0.0266692 0.00333341 2.77618e-17
0.0266685 0.00333348 3.05358e-17
0.0266679 0.00333355 3.33098e-17
0.0266673 0.00333363 3.33082e-17
0.0266667 0.0033337 2.22054e-17
0.026 0.00341296 3.073e-17
0.0253339 0.00349666 2.95514e-17
0.0246684 0.00358502 3.45529e-17
0.0240035 0.00367823 3.56601e-17
0.0233333 0.00377736 3.25672e-17
0.0226667 0.00389136 3.65407e-17
0.0219998 0.0040039 3.56594e-17
0.0213338 0.00412225 3.1775e-17
0.020669 0.00424663 3.51251e-17
0.02 0.00438401 4.08494e-17
0.0193333 0.00454783 4.2682e-17
0.0186664 0.00471069 4.07077e-17
0.0179993 0.00487252 3.85153e-17
0.017335 0.0050457 3.78878e-17
0.0166667 0.0052493 3.88578e-17
0.016 0.0054851 4.05231e-17
0.0153342 0.00572336 3.79579e-17
0.0146722 0.00597194 3.93304e-17
0.0140188 0.00624224 4.27161e-17
0.0133333 0.00655525 2.91434e-17
0.0132897 0.00657754 3.3234e-17
0.013246 0.00659985 2.7901e-17
0.0132024 0.0066222 2.65859e-17
0.0131588 0.00664464 2.66584e-17
0.0131163 0.00666667 3.60822e-17
0.012493 0.00699082 3.8318e-17
0.0118823 0.00733802 4.2597e-17
0.011286 0.00770944 3.98387e-17
0.0107059 0.00810573 3.84143e-17
0.01 0.008644 3.60822e-17
0.00969225 0.0089152 4.10143e-17
0.00938992 0.00919242 2.92796e-17
0.00909316 0.00947561 3.3817e-17
0.00880215 0.0097647 3.48247e-17
0.00857464 0.01 3.60822e-17
0.00819305 0.0104075 3.52114e-17
0.00783053 0.010832 3.13568e-17
0.00748785 0.0112727 2.46912e-17
0.00716326 0.011727 3.20354e-17
0.00666667 0.0124778 3.60822e-17
0.00656667 0.0126489 4.28546e-17
0.00646825 0.0128209 3.4364e-17
0.00637138 0.0129938 3.83661e-17
0.00627605 0.0131676 3.39572e-17
0.00618584 0.0133333 3.60822e-17
0.00582497 0.014 3.98293e-17
0.00550169 0.0146857 4.04221e-17
0.00521195 0.0153862 4.04281e-17
0.00494466 0.0160956 3.2096e-17
0.00473077 0.0166667 3.26341e-17
0.00448219 0.0173333 3.13193e-17
0.00427038 0.0180126 3.46165e-17
0.00408186 0.0186987 3.45137e-17
0.00390274 0.0193872 3.52661e-17
0.00375184 0.02 3.74516e-17
0.00366814 0.0203327 3.13491e-17
0.00359278 0.0206674 3.43331e-17
0.00351946 0.0210026 3.32786e-17
0.00344811 0.0213382 3.39563e-17
0.00333333 0.0218936 3.60822e-17
0.00327654 0.0221815 3.87632e-17
0.00322101 0.0224697 4.00585e-17
0.00316669 0.0227582 3.58047e-17
0.00311355 0.0230468 4.26551e-17
0.003062 0.0233333 4.30211e-17
0.00293938 0.024 4.88498e-17
0.00282784 0.0246686 5.6063e-17
0.00272246 0.0253382 5.1486e-17
0.00262284 0.0260087 5.99813e-17
0.00252938 0.0266667 5.68989e-17
0.00242444 0.0273333 5.92582e-17
0.00233557 0.0280023 6.33579e-17
0.00225617 0.0286725 6.62073e-17
0.00218124 0.0293432 6.74912e-17
0.0021019 0.03 5.68989e-17
0.00200992 0.0306667 5.9952e-17
0.00193475 0.0313354 6.36955e-17
0.0018756 0.0320058 6.2796e-17
0.00181821 0.0326763 6.0116e-17
0.00174977 0.0333333 5.82867e-17
0.00166749 0.034 5.50948e-17
0.00160309 0.0346686 5.18096e-17
0.00155538 0.0353387 5.39816e-17
0.00150861 0.0360088 5.90095e-17
0.00144904 0.0366667 5.969e-17
0.00137417 0.0373333 6.43249e-17
0.0013187 0.0380019 6.47761e-17
0.00128048 0.0386717 6.36213e-17
0.00124227 0.0393414 5.71771e-17
0.00119039 0.04 5.63043e-17
0.00112125 0.0406667 6.75217e-17
0.00107358 0.0413352 6.56613e-17
0.00103821 0.0420045 6.53569e-17
0.00100283 0.0426738 6.85729e-17
0.000958175 0.0433333 7.05688e-17
0.000893507 0.044 7.13704e-17
0.00085332 0.0446686 6.98446e-17
0.000820131 0.0453376 6.98676e-17
0.000786942 0.0460065 6.96001e-17
0.00074983 0.0466667 6.9528e-17
0.000688649 0.0473333 7.30993e-17
0.000656326 0.048002 7.12136e-17
0.000624803 0.0486707 6.77862e-17
0.000593279 0.0493395 6.84073e-17
0.000562143 0.05 6.56772e-17
0.000503628 0.0506667 6.44563e-17
0.00047332 0.0513352 6.80487e-17
0.000443013 0.0520038 6.05009e-17
0.000412706 0.0526723 6.63265e-17
0.000382739 0.0533333 7.43027e-17
0.000326147 0.054 6.75274e-17
0.000296618 0.0546684 6.41794e-17
0.000267088 0.0553368 6.84811e-17
0.000237558 0.0560052 6.84088e-17
0.000208337 0.0566667 7.32053e-17
0.000166669 0.0571679 6.92523e-17
0.000144685 0.0576705 6.94319e-17
0.0001227 0.058173 6.75298e-17
0.000100716 0.0586755 6.46557e-17
4.2773e-05 0.06 7.48688e-17
3.42184e-05 0.0601035 6.88105e-17
2.96287e-05 0.0602073 6.79502e-17
2.50389e-05 0.0603111 6.77837e-17
2.04492e-05 0.0604149 7.28214e-17
0 0.0608774 7.50134e-17
0.05 0.00434783 5.94331e-18
0.0493333 0.0043537 3.85186e-18
0.0486667 0.00436149 -3.2444e-19
0.0480001 0.0043709 -2.56749e-18
0.0473335 0.00438164 2.88417e-19
0.0466667 0.00439503 3.08914e-18
0.046 0.00441218 3.75448e-18
0.0453334 0.00443016 5.11231e-18
0.0446667 0.00444916 -1.38295e-19
0.0440002 0.00446949 3.30178e-18
0.0433333 0.00449346 2.17687e-18
0.0426667 0.00452226 5.14428e-18
0.042 0.00455098 9.84591e-18
0.0413333 0.0045799 1.06165e-17
0.0406667 0.00461022 4.01493e-18
0.04 0.00464577 -7.97872e-19
0.0393333 0.00468736 -3.29574e-18
0.0386666 0.00472811 -4.40444e-18
0.0379998 0.00476804 -3.21364e-18
0.0373332 0.00481002 2.73695e-18
0.0366667 0.004859 7.82736e-18
0.036 0.00491535 8.45843e-19
0.0353332 0.00497031 -2.52222e-18
0.0346663 0.00502386 -2.13956e-18
0.0339997 0.00508074 -4.23266e-18
0.0333333 0.00514602 -6.93889e-18
0.0326667 0.0052202 -6.66134e-18
0.0319998 0.00529266 -1.17914e-18
0.0313328 0.00536337 -6.14515e-18
0.0306663 0.00543935 -9.75223e-18
0.03 0.00552519 -6.93889e-18
0.0293333 0.00562173 -8.74301e-18
0.0286664 0.00571648 -9.57525e-18
0.0279999 0.00581374 -7.87383e-18
0.0273343 0.00591799 -7.77376e-18
0.0266667 0.00603085 -6.93889e-18
0.026 0.00615629 -6.52256e-18
0.0253334 0.00628216 -9.57581e-18
0.0246685 0.00641635 -1.76223e-17
0.0240053 0.00655937 -1.71007e-17
0.0235397 0.00666667 -1.69969e-17
0.0234984 0.00667663 -1.13771e-17
0.0234571 0.00668662 -1.54717e-17
0.0234159 0.00669666 -1.67908e-17
0.0233747 0.00670674 -1.53344e-17
0.0233333 0.00671689 -1.11859e-17
0.0226667 0.00688175 -1.28482e-17
0.0220026 0.00705665 -1.31395e-17
0.0213414 0.00724243 -1.78128e-17
0.0206836 0.00743966 -1.51167e-17
0.02 0.00765926 -1.69494e-17
0.0193333 0.0078986 -7.67791e-18
0.0186707 0.008149 -7.74631e-18
0.0180127 0.0084111 -9.2368e-18
0.0173617 0.00869019 -6.83929e-18
0.0166667 0.00901797 -6.93889e-18
0.0162906 0.00921437 -4.78965e-18
0.015917 0.00941545 -3.60873e-18
0.0155463 0.0096219 -9.93033e-18
0.0151796 0.00983534 -7.41147e-18
0.014909 0.01 -1.40731e-17
0.0145938 0.0101982 -6.60946e-18
0.0142829 0.0104028 1.19429e-18
0.0139762 0.0106139 3.17177e-19
0.0136741 0.0108315 1.23288e-19
0.0133333 0.0110896 7.20598e-18
0.0127747 0.0115384 4.63722e-18
0.0122324 0.0120067 3.7177e-18
0.0117074 0.0124945 2.62091e-18
0.0112009 0.0130013 9.07976e-18
0.0108928 0.0133333 4.95655e-18
0.0107143 0.0135349 6.04691e-18
0.0105394 0.0137397 1.2651e-17
0.0103684 0.0139477 6.82817e-18
0.0102009 0.0141586 1.07542e-17
0.01 0.0144204 1.34244e-17
0.00966928 0.0148696 9.97628e-18
0.00935141 0.0153281 4.471e-18
0.00904627 0.0157951 3.66994e-18
0.00875324 0.0162698 9.70905e-18
0.00851817 0.0166667 0
0.00814787 0.0173132 -7.57565e-18
0.0078068 0.0179756 -8.22803e-18
0.00749232 0.0186511 -1.06554e-17
0.00719604 0.0193347 -7.90681e-18
0.00692745 0.02 -1.18386e-17
0.00687529 0.0201365 -1.05811e-17
0.00682424 0.0202734 -1.3685e-17
0.00677401 0.0204106 -1.8577e-17
0.00672446 0.020548 -1.09798e-17
0.00666667 0.0207107 -7.24516e-18
0.00648369 0.0212352 -5.93491e-18
0.00630947 0.0217627 -8.92153e-18
0.00614354 0.0222929 -5.03453e-18
0.00598542 0.0228254 4.60395e-18
0.00584 0.0233333 0
0.00564732 0.024 -4.16334e-19
0.00547478 0.0246722 -1.5357e-18
0.00531896 0.0253484 1.62717e-19
0.00517237 0.0260267 -3.06261e-18
0.00502977 0.0266667 -4.16334e-18
0.00487719 0.0273333 5.33107e-18
0.00474318 0.028004 1.96055e-18
0.00462643 0.0286778 1.20162e-19
0.00451415 0.0293525 1.582e-18
0.00440101 0.03 3.77307e-18
0.004279 0.0306667 5.0681e-19
0.00417404 0.0313362 3.25383e-18
0.00407663 0.0320069 7.76002e-18
0.00398196 0.032678 1.21935e-17
0.00389216 0.0333333 1.57227e-17
0.00379413 0.034 6.2409e-18
0.00370834 0.0346684 5.76208e-18
0.00362493 0.035337 -5.61228e-19
0.00354384 0.0360059 -3.7569e-18
0.00346598 0.0366667 -1.27109e-17
0.00343945 0.0368916 -7.60841e-18
0.00341393 0.0371166 -4.24213e-18
0.00338866 0.0373417 -3.55784e-19
0.00336362 0.0375668 -4.10257e-18
0.00333333 0.0378416 4.72016e-19
0.00328631 0.0382733 -1.41783e-18
0.0032401 0.038705 5.39585e-18
0.0031947 0.0391369 3.93247e-18
0.00315009 0.0395688 1.08262e-18
0.00310633 0.04 6.93889e-18
0.00303719 0.0406667 5.82867e-18
0.00297243 0.0413338 -1.52729e-18
0.00290939 0.042001 3.45732e-18
0.00284799 0.0426685 6.13064e-18
0.00278841 0.0433333 0
0.00272375 0.044 1.66533e-18
0.00266717 0.0446674 2.9825e-18
0.00261203 0.0453349 2.26824e-18
0.00255826 0.0460026 6.84187e-18
0.00250476 0.0466667 0
[...]
POINT_DATA 22176
 FIELD attributes 1
U 3 22176 float
-4.15974e-19 	4.43304e-22 	0
-0.00950876 	6.81229e-05 	0 -0.00950876 	6.81229e-05 	0 -0.00950876 	6.81229e-05 	0 -0.00950876 	6.81229e-05 	0 -0.00950876 	6.81229e-05 	0 -0.00950876 	6.81229e-05 	0 -0.00980822 	7.3107e-05 	0 -0.0100159 	8.66839e-05 	-1.26623e-24 -0.0099804 	0.000123138 	-5.90231e-24 -0.00975848 	0.000156382 	-1.05551e-23 -0.00946791 	0.000188465 	-1.52255e-23 -0.00975993 	0.000178579 	5.73128e-22 -0.00992575 	0.000183897 	9.53918e-22 -0.00986065 	0.000218353 	9.39455e-22 -0.00966154 	0.000259876 	5.64689e-22 -0.00938867 	0.000305894 	-2.73774e-23 -0.0096662 	0.000282978 	4.13311e-22 -0.00976751 	0.000285976 	6.87803e-22 -0.00967768 	0.00031895 	7.72167e-22 -0.00951058 	0.000364277 	6.53345e-22 -0.0092616 	0.000423379 	3.1051e-22 -0.0095186 	0.000389526 	2.27756e-22 -0.00953551 	0.00039776 	2.4503e-22 -0.00942672 	0.000430014 	3.18719e-22 -0.00929262 	0.000472621 	4.1463e-22 -0.00907277 	0.00054377 	5.72723e-22 -0.0093041 	0.000501285 	4.31244e-22 -0.00922061 	0.000523551 	3.44057e-22 -0.00909914 	0.000556037 	2.65578e-22 -0.00898661 	0.000589442 	1.88032e-22 -0.00880399 	0.000669597 	2.46489e-22 -0.00895073 	0.000634693 	2.20805e-22 -0.00881419 	0.000667333 	1.62116e-22 -0.00868653 	0.000701112 	1.03561e-22 -0.00856813 	0.000736077 	4.51458e-23 -0.0084399 	0.000803296 	-1.12695e-24 -0.00844504 	0.000797868 	-2.8616e-24 -0.00830854 	0.000832548 	-2.13818e-24 -0.00818128 	0.000868687 	-1.38887e-24 -0.00806367 	0.000906344 	-6.12582e-25 -0.00795623 	0.000945525 	1.90598e-25 -0.00795614 	0.000945564 	1.91457e-25 -0.00795605 	0.000945603 	1.92316e-25 -0.00795596 	0.000945641 	1.93175e-25 -0.00795587 	0.00094568 	1.94035e-25 -0.00795565 	0.000945793 	1.92278e-25 -0.00781732 	0.000982329 	9.28714e-25 -0.00768831 	0.00102076 	1.65914e-24 -0.00756904 	0.00106112 	2.38234e-24 -0.00745993 	0.00110346 	3.09799e-24 -0.0072267 	0.00123579 	1.3572e-23 -0.00706668 	0.00119247 	1.0098e-22 -0.00694974 	0.00123514 	1.21272e-22 -0.00684273 	0.00128021 	1.42556e-22 -0.00668474 	0.00137269 	1.33888e-22 -0.00640497 	0.00157386 	5.61474e-23 -0.00624423 	0.0015249 	1.64888e-22 -0.00608204 	0.00147531 	2.73622e-22 -0.00594663 	0.00155029 	2.81232e-22 -0.0057104 	0.00173959 	1.89917e-22 -0.0055032 	0.00194645 	9.94171e-23 -0.00536617 	0.00192039 	2.05218e-22 -0.00518013 	0.00194509 	2.53472e-22 -0.00493717 	0.00204233 	2.24574e-22 -0.00471989 	0.0021554 	1.93524e-22 -0.00453899 	0.00231627 	1.42089e-22 -0.00453224 	0.00231626 	1.47832e-22 -0.00452397 	0.00231801 	1.50813e-22 -0.00451236 	0.00232367 	1.47659e-22 -0.00450083 	0.00232939 	1.44499e-22 -0.00448964 	0.00233504 	1.41403e-22 -0.00428473 	0.00243596 	1.05586e-22 -0.0040992 	0.00255335 	6.86081e-23 -0.00393478 	0.00268825 	3.04395e-23 -0.00374123 	0.00285256 	2.33458e-23 -0.00350975 	0.00309292 	2.66401e-23 -0.00343339 	0.00314823 	1.5266e-23 -0.00336318 	0.00320948 	3.87997e-24 -0.00329271 	0.003271 	2.25371e-23 -0.00322518 	0.00333558 	5.67212e-23 -0.00317637 	0.00339188 	8.39934e-23 -0.00301052 	0.00352568 	8.24677e-23 -0.00286078 	0.0036791 	7.88122e-23 -0.00272976 	0.00381986 	7.30496e-23 -0.00261513 	0.00395419 	6.5435e-23 -0.00245173 	0.00419509 	5.04889e-23 -0.00242551 	0.00423896 	8.16565e-23 -0.00240047 	0.00428441 	1.12122e-22 -0.0023766 	0.00433142 	1.41894e-22 -0.0023735 	0.00436133 	7.82387e-23 -0.00237463 	0.00438691 	1.10766e-25 -0.00213427 	0.00452682 	-3.14056e-22 -0.00196134 	0.00474184 	-5.58887e-22 -0.00188629 	0.00500618 	-6.64992e-22 -0.00193721 	0.00517243 	-5.21026e-22 -0.00197906 	0.00530766 	-4.04974e-22 -0.00173357 	0.0055595 	-2.84778e-22 -0.00158317 	0.00576133 	-1.79268e-22 -0.00152958 	0.00588029 	-9.43515e-23 -0.00148074 	0.00601302 	-7.39916e-24 -0.00156287 	0.00621264 	-4.091e-23 -0.00144241 	0.00640632 	-2.03402e-25 -0.0014166 	0.00647605 	0 -0.00139241 	0.00654908 	0 -0.00136936 	0.00662597 	0 -0.00133307 	0.00675925 	0 -0.00131602 	0.00682889 	0 -0.00129968 	0.00690107 	0 -0.00128404 	0.00697572 	0 -0.00126907 	0.00705276 	0 -0.0012922 	0.0070257 	0 -0.00119057 	0.00713639 	0 -0.00115257 	0.00732427 	0 -0.00111851 	0.0075281 	0 -0.00109653 	0.00771972 	0 -0.00118971 	0.00755798 	0 -0.00101974 	0.0076764 	0 -0.000934204 	0.00788479 	0 -0.000910766 	0.0081525 	0 -0.000980099 	0.00811356 	0 -0.00108925 	0.00789419 	0 -0.00090761 	0.00807555 	0 -0.000734265 	0.00832176 	0 -0.000732226 	0.00855519 	0 -0.000867462 	0.00832641 	0 -0.000993034 	0.00804608 	0 -0.00079903 	0.00829681 	0 -0.000614744 	0.00863164 	0 -0.00060117 	0.00861472 	0 -0.000755315 	0.00834142 	0 -0.000898189 	0.00799769 	0 -0.000690701 	0.00832459 	0 -0.000498775 	0.00874232 	0 -0.000484322 	0.00848899 	0 -0.000644019 	0.00817403 	0 -0.0008054 	0.00776598 	0 -0.000582968 	0.00817655 	0 -0.000443504 	0.0083915 	0 -0.000428891 	0.00811501 	0 -0.000526199 	0.00777092 	0 -0.000708186 	0.00730081 	0 -0.000469055 	0.00780352 	0 -0.000385782 	0.00777601 	0 -0.000370778 	0.00747357 	0 -0.000401031 	0.00713341 	0 -0.000606607 	0.00660991 	0 -0.000348735 	0.00721453 	0 -0.000325818 	0.00691186 	0 -0.000310169 	0.00657988 	0 -0.00029452 	0.00624791 	0 -0.00049946 	0.00569037 	0 -0.000275988 	0.00608797 	0 -0.000259379 	0.0057216 	0 -0.000242771 	0.00535524 	0 -0.000226163 	0.00498888 	0 -0.000375468 	0.00442316 	2.28347e-37 -0.000198928 	0.00450278 	0 -0.000180917 	0.00409509 	0 -0.000162906 	0.00368741 	0 -0.000144895 	0.00327972 	0 -0.000227499 	0.00273692 	2.33868e-40 -0.000114588 	0.00261928 	0 -9.94734e-05 	0.00227379 	0 -8.43587e-05 	0.00192829 	0 -6.9244e-05 	0.0015828 	0 -5.26251e-05 	0.000636958 	-2.54709e-38 -2.70285e-05 	0.000611231 	0 -2.34032e-05 	0.000529246 	0 -1.97778e-05 	0.000447261 	0 -1.61525e-05 	0.000365276 	0 0 	0 	0
-0.0182325 	0.000160667 	0 -0.0184317 	0.000215256 	0 -0.0185299 	0.000261591 	-2.10394e-24 -0.0185093 	0.000298372 	-6.63514e-24 -0.0183363 	0.000368235 	-5.55532e-23 -0.0180503 	0.000464138 	-1.39208e-22 -0.0182017 	0.000491008 	-6.7953e-22 -0.0182843 	0.000521078 	-1.03014e-21 -0.0182457 	0.000556638 	-1.05087e-21 -0.0180123 	0.000647361 	-7.34271e-22 -0.0176983 	0.000764598 	-2.61221e-22 -0.0178021 	0.000767037 	-5.83838e-22 -0.0178769 	0.000775387 	-8.34973e-22 -0.0178229 	0.000810562 	-7.63623e-22 -0.0175125 	0.000933927 	-3.31968e-22 -0.0171818 	0.00107173 	1.50054e-22 -0.0172403 	0.00105387 	8.32709e-22 -0.017296 	0.00103571 	1.5156e-21 -0.0171993 	0.00108313 	1.56964e-21 -0.0168425 	0.00123761 	9.90022e-22 -0.0165067 	0.0013952 	4.08918e-22 -0.0165237 	0.00136191 	7.28304e-22 -0.0165365 	0.001328 	1.04806e-21 -0.0163607 	0.00139593 	9.91037e-22 -0.0160085 	0.00156822 	5.57984e-22 -0.0156794 	0.00174477 	1.24279e-22 -0.0156602 	0.0017016 	2.29961e-23 -0.0156363 	0.00165753 	-7.81461e-23 -0.0153438 	0.00174919 	-8.02323e-23 -0.0150107 	0.00193394 	-4.79426e-23 -0.0146996 	0.00212849 	-1.4228e-23 -0.0146506 	0.00208158 	-5.23721e-24 -0.0144654 	0.00211058 	1.04976e-24 -0.0141555 	0.00221738 	4.62007e-24 -0.0138604 	0.00234303 	6.96509e-24 -0.0135777 	0.00255467 	2.62339e-24 -0.0134594 	0.00254148 	5.49403e-24 -0.0131504 	0.00265393 	2.23481e-23 -0.0128575 	0.00277296 	3.93587e-23 -0.0125818 	0.00289895 	5.65324e-23 -0.0124004 	0.00299287 	6.87501e-23 -0.0123853 	0.00300188 	6.93872e-23 -0.0123703 	0.00301092 	7.00233e-23 -0.0123554 	0.00301999 	7.06582e-23 -0.0123406 	0.00302909 	7.1292e-23 -0.0123129 	0.0030449 	7.19744e-23 -0.0120155 	0.00316442 	7.50641e-23 -0.0117387 	0.00329867 	7.97659e-23 -0.0114803 	0.00344203 	8.36402e-23 -0.0112221 	0.00360502 	8.85991e-23 -0.0108008 	0.00387761 	1.10504e-22 -0.0105066 	0.00397044 	6.77324e-23 -0.0102298 	0.00407452 	2.4631e-23 -0.00993299 	0.00425821 	1.20586e-23 -0.00958891 	0.00452238 	3.05243e-23 -0.00925049 	0.00483095 	4.87558e-23 -0.00911743 	0.00490711 	2.03327e-23 -0.00897121 	0.00499649 	0 -0.00878327 	0.00511241 	0 -0.00860517 	0.00523575 	0 -0.00847978 	0.0053335 	0 -0.00831806 	0.00547334 	0 -0.00816515 	0.00562074 	0 -0.00802129 	0.00577579 	0 -0.00783668 	0.00593682 	0 -0.0076333 	0.00613162 	0 -0.00735036 	0.0063486 	0 -0.00709666 	0.00659326 	0 -0.00683014 	0.00683424 	0 -0.00658232 	0.00709423 	0 -0.00644551 	0.00727609 	0 -0.00633543 	0.00742268 	0 -0.00623069 	0.00757484 	0 -0.00612289 	0.00771004 	1.01819e-23 -0.00601563 	0.00783827 	2.58412e-23 -0.00589024 	0.00800148 	4.49896e-23 -0.0057034 	0.00822558 	4.98957e-23 -0.00553374 	0.00846938 	5.57135e-23 -0.00538362 	0.00872138 	5.80296e-23 -0.00527221 	0.00890127 	2.45798e-23 -0.00518934 	0.00906061 	-2.44654e-24 -0.00487504 	0.00946853 	-1.16515e-24 -0.00460337 	0.00988728 	-1.3212e-23 -0.0044122 	0.0101808 	-1.0464e-22 -0.00424016 	0.0105021 	-1.92875e-22 -0.00415197 	0.0108641 	-3.69289e-22 -0.00409815 	0.0109871 	-4.23945e-22 -0.0040562 	0.01108 	-4.14562e-22 -0.00402177 	0.0111545 	-3.65618e-22 -0.00398813 	0.0112302 	-3.17136e-22 -0.00394929 	0.0113212 	-2.60372e-22 -0.00382966 	0.0115949 	-1.93141e-22 -0.00372014 	0.0118859 	-1.2654e-22 -0.00362019 	0.0121933 	-6.05516e-23 -0.00356683 	0.0124571 	-1.20971e-23 -0.00362768 	0.012552 	-1.41421e-23 -0.00331983 	0.0129325 	-9.29385e-24 -0.00308088 	0.0133705 	7.29431e-23 -0.00299603 	0.0138632 	3.51857e-22 -0.00312504 	0.0140252 	6.32196e-22 -0.00324252 	0.0141674 	8.94442e-22 -0.00293141 	0.01467 	4.62496e-22 -0.00263768 	0.015224 	3.82428e-23 -0.00256744 	0.0154272 	0 -0.00272883 	0.0156176 	3.156e-25 -0.00288875 	0.0157845 	6.31849e-25 -0.00257454 	0.0164222 	1.65114e-25 -0.00243741 	0.0167826 	0 -0.00239585 	0.0169842 	0 -0.0023564 	0.0171964 	0 -0.00255736 	0.0173911 	-2.39745e-22 -0.00231235 	0.0180132 	0 -0.00227551 	0.0182431 	0 -0.00224068 	0.0184839 	0 -0.00220781 	0.0187355 	0 -0.00223862 	0.0189791 	1.88038e-22 -0.00217583 	0.0191889 	0 -0.0021653 	0.0192791 	0 -0.00215499 	0.0193705 	0 -0.00214489 	0.0194633 	0 -0.00213283 	0.019578 	0 -0.00211414 	0.0197571 	0 -0.00209622 	0.0199407 	0 -0.00207903 	0.0201288 	0 -0.00206257 	0.0203212 	0 -0.0021017 	0.0202654 	0 -0.00200006 	0.0206031 	0 -0.00197683 	0.0209242 	0 -0.00195534 	0.0212564 	0 -0.00193551 	0.0215991 	0 -0.00206091 	0.0212463 	0 -0.00184215 	0.021732 	0 -0.0018268 	0.0221158 	0 -0.00181302 	0.0225103 	0 -0.0018326 	0.0227492 	0 -0.00202633 	0.02208 	0 -0.00176846 	0.0226847 	0 -0.00167157 	0.023211 	0 -0.0016669 	0.0236797 	0 -0.00178018 	0.0235172 	0 -0.00199575 	0.0227376 	0 -0.00171676 	0.0234557 	0 -0.00150655 	0.0241989 	8.33019e-38 -0.00151339 	0.0247578 	4.56992e-37 -0.00173015 	0.024118 	8.31159e-37 -0.00197069 	0.0232154 	1.19851e-36 -0.00166779 	0.024061 	7.67e-37 -0.00137473 	0.0250277 	3.4118e-37 -0.00139956 	0.0254474 	6.04099e-40 -0.00168147 	0.0245179 	1.31278e-39 -0.00195145 	0.0234768 	2.00608e-39 -0.0016213 	0.0244678 	1.19551e-39 -0.00130302 	0.0256079 	3.96557e-40 -0.00131176 	0.0257189 	-1.91971e-37 -0.00163249 	0.0246611 	-5.69526e-37 -0.00193836 	0.0234613 	-9.38182e-37 -0.00157696 	0.0246218 	-5.08388e-37 -0.00123033 	0.0259685 	-8.53955e-38 -0.00121362 	0.0257137 	0 -0.00158408 	0.0245125 	0 -0.00193521 	0.0231263 	0 -0.00153802 	0.0244909 	0 -0.00118878 	0.0258836 	0 -0.00116013 	0.02526 	0 -0.00153055 	0.0239684 	0 -0.00194091 	0.0223559 	0 -0.00150365 	0.0239782 	0 -0.00122749 	0.0248303 	0 -0.00118961 	0.0240639 	0 -0.00144926 	0.0227901 	0 -0.00193991 	0.0208943 	0 -0.00146116 	0.0228633 	0 -0.00127366 	0.0228852 	0 -0.00121841 	0.0218925 	0 -0.00129359 	0.0206741 	0 -0.00189637 	0.0184206 	0 -0.00138447 	0.0208958 	0 -0.00129026 	0.0195591 	0 -0.00119976 	0.0181872 	0 -0.00110926 	0.0168153 	0 -0.00169231 	0.0142528 	0 -0.00127159 	0.0154659 	0 -0.00110423 	0.0134304 	0 -0.000936871 	0.0113949 	0 -0.000769514 	0.00935937 	0 -0.000946607 	0.00666907 	0 -0.000765442 	0.00721271 	0 -0.00062174 	0.00585862 	0 -0.000478039 	0.00450453 	0 -0.000334338 	0.00315044 	0 0 	0 	0
-0.0260592 	0.00028112 	0 -0.0260445 	0.000381495 	-6.15496e-23 -0.0259782 	0.000494754 	-1.4026e-22 -0.0259212 	0.00060842 	-2.19305e-22 -0.0258736 	0.000722495 	-2.98686e-22 -0.0258067 	0.000834841 	-3.79019e-22 -0.0257464 	0.000906645 	-4.70761e-22 -0.025656 	0.000988339 	-5.03185e-22 -0.0255708 	0.0010705 	-5.34592e-22 -0.0254907 	0.00115312 	-5.64971e-22 -0.0254679 	0.00117853 	-5.73942e-22 -0.025435 	0.00121786 	-5.90785e-22 -0.0254033 	0.00125731 	-6.07507e-22 -0.0253729 	0.00129687 	-6.24105e-22 -0.0253437 	0.00133653 	-6.40581e-22 -0.0252951 	0.00138325 	-6.63728e-22 -0.0251407 	0.00149056 	-5.70396e-22 -0.0249835 	0.00159834 	-4.81211e-22 -0.0248359 	0.00170744 	-3.9115e-22 -0.0246984 	0.0018179 	-3.002e-22 -0.0244732 	0.0019659 	-2.22364e-22 -0.0243188 	0.00206941 	-5.52117e-22 -0.0241279 	0.00217873 	-5.50804e-22 -0.0239472 	0.00228991 	-5.52935e-22 -0.023777 	0.00240299 	-5.58587e-22 -0.0234146 	0.00260002 	1.52567e-22 -0.0232607 	0.00268814 	-4.66942e-22 -0.0230464 	0.00280271 	-5.27149e-22 -0.0228431 	0.00291983 	-5.90197e-22 -0.0225759 	0.00307237 	-4.70976e-22 -0.0221397 	0.00330908 	9.46406e-23 -0.0219466 	0.00339296 	3.58005e-23 -0.0217514 	0.00348961 	-6.68123e-24 -0.0215368 	0.00361717 	-4.76295e-24 -0.0211011 	0.00385767 	-7.93541e-24 -0.0206687 	0.00411554 	-1.13831e-23 -0.0204492 	0.0042049 	-6.35058e-24 -0.0202391 	0.00429798 	-1.29712e-24 -0.0198629 	0.0044871 	5.8896e-26 -0.0194352 	0.00475537 	5.51087e-25 -0.0190243 	0.00503943 	1.03846e-24 -0.0187949 	0.00514426 	2.29811e-25 -0.0184211 	0.00533475 	0 -0.0180041 	0.00556728 	0 -0.0176098 	0.00581236 	0 -0.0172281 	0.0060919 	2.28372e-24 -0.0172085 	0.00610345 	5.35291e-25 -0.017177 	0.00612127 	0 -0.0171405 	0.00614194 	0 -0.0171041 	0.00616271 	0 -0.0170693 	0.00618281 	0 -0.0166941 	0.0064174 	0 -0.0163394 	0.00666569 	0 -0.0160061 	0.0069282 	0 -0.0156362 	0.00722588 	0 -0.0151541 	0.00760458 	0 -0.0147564 	0.0078717 	0 -0.0143873 	0.00816065 	0 -0.0139106 	0.00850291 	0 -0.0134599 	0.00887599 	0 -0.0129994 	0.0093589 	0 -0.012977 	0.00938226 	0 -0.0129548 	0.00940575 	0 -0.0129254 	0.00942911 	0 -0.0128955 	0.0094526 	0 -0.0128666 	0.00947555 	0 -0.0124105 	0.00987086 	0 -0.0119907 	0.0103016 	0 -0.0115968 	0.0107609 	5.18323e-24 -0.0111636 	0.0112099 	4.42609e-23 -0.0106366 	0.01186 	9.67221e-23 -0.0105679 	0.0119531 	9.71922e-23 -0.0105009 	0.0120477 	9.77237e-23 -0.0104325 	0.012136 	1.01937e-22 -0.0103604 	0.0122117 	1.12554e-22 -0.0102941 	0.0122841 	1.22579e-22 -0.00981271 	0.0128354 	2.64657e-22 -0.00937862 	0.013441 	4.11641e-22 -0.00898069 	0.0139718 	1.21014e-22 -0.00865452 	0.0145092 	-4.18129e-22 -0.0084572 	0.0149377 	-8.41224e-22 -0.00838032 	0.0151013 	-1.02115e-21 -0.00830585 	0.0152581 	-1.141e-21 -0.00823485 	0.0153789 	-1.00411e-21 -0.0081655 	0.0155016 	-8.68433e-22 -0.00808772 	0.0156447 	-7.13948e-22 -0.00786215 	0.0160424 	-7.37834e-22 -0.0076545 	0.0164623 	-7.54681e-22 -0.00746405 	0.0169031 	-7.64806e-22 -0.00733705 	0.0172203 	-4.80382e-22 -0.00725211 	0.0174584 	-9.53859e-23 -0.00689712 	0.0180812 	4.66921e-22 -0.00656915 	0.0187467 	1.035e-21 -0.0063556 	0.0192107 	1.42659e-21 -0.00629891 	0.0196202 	1.92652e-21 -0.00625644 	0.0200059 	2.38699e-21 -0.00598229 	0.0207108 	3.26564e-21 -0.00581386 	0.0211698 	2.78305e-21 -0.00567716 	0.0215836 	1.99201e-21 -0.00554961 	0.0220152 	1.21885e-21 -0.00536253 	0.0227268 	1.97772e-24 -0.00536067 	0.0227337 	-1.356e-23 -0.0053597 	0.0227375 	-1.2234e-23 -0.00535874 	0.0227412 	-1.09092e-23 -0.00535778 	0.022745 	-9.58552e-24 -0.00535681 	0.0227488 	-8.25713e-24 -0.00522209 	0.0232556 	-2.25839e-22 -0.005098 	0.0237854 	-4.47046e-22 -0.00498393 	0.0243368 	-6.71638e-22 -0.00487926 	0.0249085 	-8.99384e-22 -0.0050143 	0.0250071 	-1.12471e-21 -0.00465396 	0.0256629 	-7.81351e-22 -0.00447845 	0.026327 	8.07677e-23 -0.00439798 	0.0269992 	1.20582e-21 -0.0045144 	0.0272609 	2.10797e-21 -0.00471131 	0.0273153 	2.88419e-21 -0.00434168 	0.0281103 	1.77614e-21 -0.00398666 	0.0289604 	6.81997e-22 -0.00395401 	0.02952 	9.8965e-25 -0.00420278 	0.0296033 	2.44018e-24 -0.00443919 	0.0296578 	3.84907e-24 -0.00405869 	0.0306078 	1.93459e-24 -0.00369345 	0.0316187 	4.40805e-26 -0.00364997 	0.0318842 	0 -0.00391103 	0.0319878 	-3.43546e-21 -0.0041895 	0.0320441 	-7.12642e-21 -0.00379661 	0.0331678 	-2.3174e-21 -0.00359404 	0.0338751 	0 -0.00356361 	0.0341627 	0 -0.00362502 	0.0344007 	-1.56273e-24 -0.00394932 	0.0344613 	-7.67066e-24 -0.00354308 	0.0357815 	-1.25149e-28 -0.00351747 	0.0361065 	0 -0.00349313 	0.0364404 	0 -0.00347003 	0.036783 	0 -0.00371532 	0.0369273 	2.02577e-21 -0.00346989 	0.0379305 	1.93798e-37 -0.00345188 	0.0383101 	6.28304e-37 -0.00343506 	0.0386985 	1.06231e-36 -0.00341941 	0.0390953 	1.49584e-36 -0.00347883 	0.0394335 	1.98871e-36 -0.00341509 	0.0397787 	2.19427e-36 -0.0034121 	0.0399331 	1.97085e-36 -0.00340925 	0.0400885 	1.74782e-36 -0.00340653 	0.040245 	1.52517e-36 -0.00340359 	0.0404244 	1.27191e-36 -0.00339839 	0.040707 	9.96838e-37 -0.00339363 	0.0409931 	7.21935e-37 -0.00338931 	0.0412823 	4.47193e-37 -0.00338542 	0.0415748 	1.72611e-37 -0.00344737 	0.0414735 	3.54389e-39 -0.0033533 	0.0421062 	-2.56258e-37 -0.00335875 	0.0426223 	-6.22547e-37 -0.00336511 	0.0431454 	-9.89192e-37 -0.00337234 	0.0436751 	-1.35618e-36 -0.00355873 	0.0430737 	-1.72245e-36 -0.00330336 	0.0440631 	-1.29266e-36 -0.00333122 	0.044682 	-8.65644e-37 -0.00335959 	0.0453047 	-4.38784e-37 -0.00338846 	0.0459311 	-1.20695e-38 -0.0037235 	0.0444969 	0 -0.00332631 	0.0458615 	0 -0.00332774 	0.0467025 	0 -0.00339145 	0.0474556 	0 -0.00356417 	0.0474153 	0 -0.00396356 	0.0456533 	0 -0.0035263 	0.0472755 	0 -0.0033479 	0.0486361 	0 -0.00347032 	0.0495683 	0 -0.00383632 	0.0485236 	0 -0.00430784 	0.0463986 	0 -0.00382908 	0.0483676 	0 -0.0033927 	0.0504946 	0 -0.00362824 	0.0515612 	0 -0.00422352 	0.0491566 	0 -0.00478837 	0.0465123 	0 -0.00427647 	0.0489875 	0 -0.00379052 	0.0517258 	0 -0.00397815 	0.0518946 	0 -0.00470762 	0.048803 	0 -0.00538607 	0.0453622 	0 -0.00487535 	0.0486473 	0 -0.00440572 	0.0522935 	0 -0.00428373 	0.050881 	0 -0.00516679 	0.0466874 	0 -0.0059556 	0.0419586 	0 -0.00553907 	0.0466558 	0 -0.00518196 	0.0488293 	0 -0.00483984 	0.0456055 	0 -0.00507611 	0.0408891 	0 -0.00589439 	0.0340506 	0 -0.00577253 	0.0413997 	0 -0.00510299 	0.0372529 	0 -0.00437491 	0.0319377 	0 -0.00364683 	0.0266226 	0 -0.00371138 	0.0178982 	0 -0.00380712 	0.0229571 	0 -0.00304022 	0.0183326 	0 -0.00227331 	0.0137081 	0 -0.00150641 	0.00908368 	0 0 	0 	0