# vtk DataFile Version 2.0
track0
ASCII
DATASET POLYDATA
POINTS 40693 float
0.05 8.57988e-20 2.57396e-18
0.05 0.00217391 -1.05592e-17
0.05 0.00217391 -1.05592e-17
0.05 0.00217391 -1.05592e-17
0.05 0.00217391 -1.05592e-17
0.05 0.00217391 -1.05592e-17
0.05 0.00217391 -1.38778e-17
0.0493333 0.00217513 -8.74301e-18
0.0486667 0.00217738 -7.14707e-18
0.048 0.00218119 -7.67797e-18
0.0473334 0.00218816 -2.95012e-18
0.0466667 0.00219769 -1.38778e-17
0.046 0.00220967 -8.74301e-18
0.0453333 0.00222108 -1.16573e-17
0.0446667 0.00223309 -8.97935e-18
0.0440001 0.00224812 -1.62495e-17
0.0433333 0.00226663 -2.63678e-17
0.0426667 0.00228898 -1.91513e-17
0.0419999 0.00230937 -1.54742e-17
0.0413332 0.00233002 -1.53815e-17
0.0406666 0.00235362 -1.3634e-17
0.04 0.0023812 -2.63678e-17
0.0393333 0.00241394 -1.42941e-17
0.0386665 0.00244353 -2.13715e-17
0.0379997 0.00247387 -2.10688e-17
0.0373331 0.00250721 -1.53376e-17
0.0366667 0.00254441 -1.11022e-17
0.036 0.00258797 -1.22125e-17
0.0353331 0.00262745 -1.47773e-17
0.0346663 0.00266921 -1.55214e-17
0.0339997 0.00271416 -2.1299e-17
0.0333333 0.00276243 -1.94289e-17
0.0326667 0.00281785 -2.52576e-17
0.0319998 0.00287017 -2.31061e-17
0.0313331 0.00292592 -2.69079e-17
0.0306668 0.00298524 -2.20207e-17
0.03 0.00304833 -2.498e-17
0.0294502 0.00310533 -2.26766e-17
0.0289003 0.00316204 -3.21693e-17
0.0283508 0.00322141 -3.48753e-17
0.0278015 0.00328355 -2.87241e-17
0.0273811 0.00333333 -3.42976e-17
0.0272382 0.00335085 -3.1879e-17
0.0270954 0.00336856 -3.22358e-17
0.0269525 0.00338649 -3.25926e-17
0.0268097 0.00340462 -3.29494e-17
0.0266667 0.003423 -3.86338e-17
0.026 0.00351157 -3.84126e-17
0.0253338 0.00360335 -3.12444e-17
0.0246682 0.00369995 -2.99786e-17
0.0240034 0.00380156 -2.67898e-17
0.0233333 0.00390934 -2.17759e-17
0.0226667 0.0040356 -2.89251e-17
0.0219994 0.00415863 -3.5375e-17
0.0213331 0.00428696 -3.27495e-17
0.0206681 0.00442142 -2.56823e-17
0.02 0.00457308 -2.07142e-17
0.0193333 0.004752 -1.78182e-17
0.0186665 0.00493027 -2.29823e-17
0.0179995 0.00510785 -2.34096e-17
0.0173359 0.00529804 -2.25008e-17
0.0166667 0.00551937 -2.498e-17
0.016061 0.00574883 -1.51404e-17
0.0154562 0.00598052 -1.93301e-17
0.0148557 0.00622302 -2.76746e-17
0.0142622 0.00648223 -2.68395e-17
0.0138721 0.00666667 -2.7265e-17
0.0137643 0.00672038 -2.29222e-17
0.0136569 0.00677483 -2.13556e-17
0.01355 0.00683003 -2.11774e-17
0.0134434 0.00688598 -1.62111e-17
0.0133333 0.00694501 -7.40242e-18
0.0126667 0.00731183 -1.70339e-17
0.0120124 0.00770029 -1.07419e-17
0.0113734 0.00811342 -1.27601e-17
0.0107516 0.0085521 -1.05558e-17
0.01 0.0091429 -6.93889e-18
0.00980888 0.00931432 -9.10361e-19
0.00961942 0.00948758 -1.15393e-17
0.00943166 0.00966266 -9.74639e-18
0.00924563 0.0098396 -6.04775e-18
0.00908034 0.01 -1.11022e-17
0.00859761 0.0104769 -1.40742e-17
0.00813804 0.0109762 -1.83555e-17
0.00770313 0.0114972 -2.35189e-17
0.00729189 0.012037 -2.17803e-17
0.00666667 0.0129296 -2.91434e-17
0.00661713 0.0130103 -3.33892e-17
0.00656789 0.0130913 -3.20834e-17
0.00651894 0.0131724 -3.49405e-17
0.0064703 0.0132537 -3.29797e-17
0.00642278 0.0133333 -3.747e-17
0.00602611 0.014 -3.3723e-17
0.00566569 0.0146869 -3.93773e-17
0.00533588 0.0153891 -3.6284e-17
0.00503285 0.0161032 -3.60436e-17
0.00479622 0.0166667 -3.64178e-17
0.00451832 0.0173333 -3.65916e-17
0.0042798 0.0180151 -3.93518e-17
0.00406742 0.0187054 -3.66777e-17
0.00386583 0.019399 -3.84037e-17
0.00370074 0.02 -3.0039e-17
0.00362726 0.0202641 -4.0407e-17
0.0035597 0.0205298 -3.31483e-17
0.00349405 0.020796 -3.15548e-17
0.0034299 0.0210626 -3.44736e-17
0.00333333 0.0214738 -3.43289e-17
0.00324924 0.0218457 -3.06712e-17
0.00316767 0.0222182 -2.24803e-17
0.00308854 0.0225912 -2.53877e-17
0.00301175 0.0229647 -1.99644e-17
0.00293828 0.0233333 -1.94289e-17
0.00280105 0.024 -1.42941e-17
0.00267909 0.0246696 -1.78379e-17
0.0025648 0.0253406 -2.4448e-17
0.00245757 0.0260127 -1.74532e-17
0.00235477 0.0266667 -1.94289e-17
0.00223884 0.0273333 -1.56819e-17
0.00214168 0.028003 -1.88663e-17
0.0020599 0.0286747 -1.63454e-17
0.0019838 0.0293471 -2.09979e-17
0.00189884 0.03 -2.498e-17
0.00179941 0.0306667 -2.40086e-17
0.00171996 0.031336 -2.78988e-17
0.00165949 0.0320073 -2.96288e-17
0.00160111 0.0326788 -3.51997e-17
0.00153059 0.0333333 -3.45491e-17
0.00144447 0.034 -2.93518e-17
0.00137972 0.0346691 -2.7664e-17
0.00133466 0.0353398 -2.90491e-17
0.00129055 0.0360105 -2.94746e-17
0.00123242 0.0366667 -3.70938e-17
0.00115739 0.0373333 -3.6275e-17
0.0011053 0.0380022 -2.73722e-17
0.00106735 0.038672 -2.83195e-17
0.00102939 0.0393418 -3.26886e-17
0.000982348 0.04 -3.77182e-17
0.000916793 0.0406667 -3.1364e-17
0.000876105 0.0413353 -3.32358e-17
0.00084325 0.0420044 -3.83794e-17
0.000810395 0.0426735 -3.46173e-17
0.000773612 0.0433333 -3.25133e-17
0.000716306 0.044 -3.10301e-17
0.000686176 0.0446684 -2.52871e-17
0.000657752 0.045337 -3.14392e-17
0.000629327 0.0460055 -2.94301e-17
0.000601215 0.0466667 -3.01446e-17
0.000551155 0.0473333 -2.86908e-17
0.000526602 0.0480014 -3.26547e-17
0.000502049 0.0486695 -3.35196e-17
0.000477497 0.0493376 -3.77547e-17
0.000453153 0.05 -4.10002e-17
0.000409439 0.0506667 -4.65826e-17
0.000388234 0.0513344 -4.49149e-17
0.000367029 0.0520022 -4.18452e-17
0.000345824 0.05267 -4.53858e-17
0.000324758 0.0533333 -4.21742e-17
0.000286486 0.054 -4.41227e-17
0.00026807 0.0546675 -4.95724e-17
0.000249654 0.055335 -4.94771e-17
0.000231238 0.0560025 -4.60785e-17
0.000212915 0.0566667 -4.33757e-17
0.000179068 0.0573333 -4.2903e-17
0.000162769 0.0580007 -4.10707e-17
0.000146469 0.058668 -4.80887e-17
0.00013017 0.0593353 -4.39959e-17
0.000113935 0.06 -4.18231e-17
9.11477e-05 0.0604952 -4.23483e-17
7.99496e-05 0.0609908 -4.28921e-17
6.87516e-05 0.0614863 -5.03748e-17
5.75536e-05 0.0619819 -5.11789e-17
2.7017e-05 0.0633333 -5.69439e-17
2.16136e-05 0.0634568 -4.77088e-17
1.88131e-05 0.0635803 -4.71515e-17
1.60127e-05 0.0637038 -4.55533e-17
1.32122e-05 0.0638273 -4.39552e-17
0 0.0644101 -4.1228e-17
0.05 0.00434783 5.94331e-18
0.0493333 0.00434889 3.16598e-18
0.0486667 0.00435299 3.83591e-19
0.048 0.00435947 -1.17968e-18
0.0473334 0.00436761 9.28566e-18
0.0466667 0.00437867 7.27973e-18
0.046 0.00439374 1.00302e-17
0.0453334 0.00441046 1.06962e-17
0.0446668 0.00442881 6.80092e-18
0.0440002 0.00444877 9.33887e-18
0.0433333 0.00447265 1.52221e-17
0.0426667 0.00450174 1.68037e-17
0.042 0.00453127 1.9776e-17
0.0413334 0.00456149 1.61675e-17
0.0406669 0.00459335 1.14779e-17
0.04 0.00463081 1.44926e-17
0.0393333 0.00467478 6.09272e-18
0.0386666 0.00471819 4.2857e-18
0.0379999 0.00476105 5.18805e-18
0.0373333 0.00480619 6.89374e-18
0.0366667 0.0048589 4.35885e-18
0.036 0.00491952 -1.62446e-18
0.0353332 0.00497885 -8.31054e-18
0.0346663 0.00503688 -9.03507e-18
0.0339998 0.00509861 -5.5881e-18
0.0333333 0.00516933 0
0.0326667 0.00524948 -6.66134e-18
0.0319998 0.00532794 -7.07717e-18
0.0313327 0.00540465 -8.59003e-18
0.0306664 0.00548738 -9.48527e-18
0.03 0.00558025 -6.93889e-18
0.0293333 0.00568427 -3.88578e-18
0.0286664 0.00578652 -4.71799e-18
0.028 0.00589217 2.36739e-19
0.0273348 0.00600513 -4.55897e-18
0.0266667 0.00612659 1.38778e-18
0.02613 0.0062346 -4.94071e-19
0.0255934 0.00634272 -4.45762e-18
0.0250579 0.00645625 -7.29547e-18
0.0245236 0.00657544 4.42456e-19
0.0241349 0.00666667 -5.49819e-18
0.0239746 0.00670571 -2.45566e-18
0.0238144 0.00674534 -3.57671e-18
0.0236544 0.00678556 -6.08578e-18
0.0234945 0.00682638 -7.20732e-18
0.0233333 0.00686818 -1.83767e-17
0.0226667 0.00704601 -1.31217e-17
0.0220025 0.00723298 -1.06576e-17
0.0213415 0.00743076 -8.79204e-18
0.020684 0.00763986 -1.16614e-17
0.02 0.00787415 -1.08615e-17
0.0193333 0.00812774 -1.0575e-17
0.0186708 0.00839187 -1.01933e-17
0.0180128 0.00866713 -1.22728e-17
0.0173622 0.00895953 -1.28389e-17
0.0166667 0.00930074 -1.11022e-17
0.016407 0.00944059 -8.75918e-18
0.0161483 0.00958244 -1.91234e-18
0.0158909 0.00972653 -6.34093e-18
0.0156352 0.00987359 -4.52732e-18
0.0154213 0.01 -6.93889e-18
0.0150037 0.0102525 -4.20426e-19
0.0145922 0.0105148 -2.79036e-18
0.0141872 0.010787 -5.58537e-18
0.0137891 0.0110691 1.71533e-18
0.0133333 0.0114123 7.67119e-20
0.0128581 0.0117965 4.75964e-18
0.0123931 0.0121931 -1.56583e-18
0.0119388 0.0126019 -4.61657e-18
0.0114961 0.0130232 3.36291e-18
0.0111881 0.0133333 1.65899e-18
0.0109505 0.0135823 2.29863e-18
0.0107183 0.0138364 3.23091e-18
0.0104916 0.0140953 -2.43649e-19
0.0102703 0.0143589 1.95163e-18
0.01 0.0146945 -3.53955e-18
0.00969809 0.0150889 -4.66611e-18
0.00940531 0.0154902 -3.76591e-18
0.00912161 0.0158979 -7.55775e-18
0.00884653 0.0163115 -6.40576e-18
0.00861841 0.0166667 -5.55112e-18
0.00822806 0.0172924 -1.17121e-17
0.00786559 0.0179347 -1.28362e-17
0.00752975 0.0185914 -1.49679e-17
0.00721255 0.0192572 -1.22638e-17
0.00688265 0.02 -2.02771e-17
0.00683946 0.0201039 -2.17728e-17
0.00679695 0.0202081 -2.38096e-17
0.00675499 0.0203125 -2.56476e-17
0.00671348 0.020417 -2.67921e-17
0.00666667 0.0205365 -2.64155e-17
0.00645043 0.0210958 -2.50182e-17
0.00624548 0.0216594 -2.84892e-17
0.00605121 0.0222268 -1.76783e-17
0.00586696 0.0227975 -2.01788e-17
0.00569991 0.0233333 -2.498e-17
0.00549067 0.024 -2.19269e-17
0.00530382 0.0246733 -1.71501e-17
0.00513828 0.0253521 -1.53224e-17
0.00498058 0.0260328 -8.72068e-18
0.00482986 0.0266667 -1.39558e-17
0.00466775 0.0273333 -8.46275e-18
0.00452656 0.0280047 -1.03406e-17
0.00440216 0.0286795 -7.51532e-18
0.00428193 0.0293549 -9.5559e-18
0.00416597 0.03 -2.08155e-17
0.00404095 0.0306667 -1.99134e-17
0.00393508 0.0313366 -1.47356e-17
0.00383371 0.0320073 -1.79145e-17
0.00373594 0.0326785 -1.27873e-17
0.00364401 0.0333333 -1.85585e-17
0.00358188 0.0337671 -1.58245e-17
0.00352499 0.0342016 -1.34449e-17
0.00346952 0.0346362 -1.74859e-17
0.00341542 0.0350711 -1.7986e-17
0.00333333 0.035748 -1.11022e-17
0.00331192 0.0359317 -1.11379e-17
0.00329073 0.0361155 -1.94998e-17
0.00326976 0.0362993 -1.12081e-17
0.00324901 0.0364831 -1.40182e-17
0.00322849 0.0366667 -1.94289e-17
0.00315346 0.0373333 -2.1233e-17
0.0030825 0.0380004 -1.92215e-17
[...]
POINT_DATA 40693
 FIELD attributes 1
U 3 40693 float
-6.35467e-19 	-1.62499e-21 	0
-0.0149965 	2.74485e-05 	0 -0.0149965 	2.74485e-05 	0 -0.0149965 	2.74485e-05 	0 -0.0149965 	2.74485e-05 	0 -0.0149965 	2.74485e-05 	0 -0.0149965 	2.74485e-05 	0 -0.0153279 	5.16734e-05 	0 -0.0155635 	8.88976e-05 	-4.32507e-25 -0.0155234 	0.000162242 	-2.06733e-24 -0.0152715 	0.00021848 	-3.70979e-24 -0.0149493 	0.000268458 	-5.35872e-24 -0.0152721 	0.000261363 	2.09581e-22 -0.0154534 	0.000278529 	3.53087e-22 -0.0153539 	0.000346126 	3.4873e-22 -0.0151216 	0.000419788 	2.08447e-22 -0.0148276 	0.000497219 	-7.04152e-24 -0.0151282 	0.000462681 	5.33224e-23 -0.015219 	0.000471383 	8.66263e-23 -0.0150711 	0.000533485 	8.68641e-23 -0.0148682 	0.000615167 	5.84503e-23 -0.0146133 	0.000717564 	1.33552e-25 -0.0148811 	0.000660383 	9.79971e-26 -0.0148522 	0.000675851 	-1.52756e-23 -0.0146695 	0.000733599 	-3.94108e-23 -0.0144874 	0.000808798 	-6.36355e-23 -0.0142796 	0.000933011 	-8.79604e-23 -0.0145068 	0.000858594 	-6.64196e-23 -0.0143388 	0.000898106 	-6.59239e-23 -0.0141358 	0.000953348 	-6.82421e-23 -0.013949 	0.00101034 	-7.07786e-23 -0.0137936 	0.00114655 	-9.32777e-23 -0.0138929 	0.00109011 	-1.73692e-22 -0.0136681 	0.00114302 	-1.40201e-22 -0.0134588 	0.00119801 	-1.06151e-22 -0.0132655 	0.00125516 	-7.15178e-23 -0.0131295 	0.00136119 	1.02913e-23 -0.0130847 	0.00134948 	-4.47087e-23 -0.0129024 	0.00139402 	-3.18391e-23 -0.0127305 	0.00144027 	-1.83239e-23 -0.0125694 	0.0014883 	-4.14009e-24 -0.0124546 	0.0015265 	7.25228e-24 -0.0124183 	0.00154016 	1.13438e-23 -0.0123829 	0.00155396 	1.54859e-23 -0.0123482 	0.00156789 	1.96789e-23 -0.0123144 	0.00158197 	2.39231e-23 -0.0122444 	0.00162682 	8.81183e-24 -0.0120097 	0.00165447 	6.56429e-24 -0.0118092 	0.00171395 	7.47454e-24 -0.0116245 	0.00177666 	8.35503e-24 -0.0114563 	0.00184275 	9.20448e-24 -0.0111027 	0.00210278 	4.98652e-23 -0.0107591 	0.0019837 	3.69292e-22 -0.0105735 	0.00203664 	4.53069e-22 -0.0104135 	0.00210538 	5.2314e-22 -0.010153 	0.00230484 	4.26085e-22 -0.00982224 	0.00263605 	1.76e-22 -0.00952103 	0.00254541 	4.35074e-22 -0.0092182 	0.00245409 	6.94132e-22 -0.00891043 	0.00255397 	7.0804e-22 -0.00864511 	0.00285903 	4.80546e-22 -0.00842606 	0.00319235 	2.54213e-22 -0.00820621 	0.00314363 	4.5381e-22 -0.00792779 	0.00320136 	4.88685e-22 -0.00763302 	0.00333358 	4.23335e-22 -0.0073715 	0.00348511 	3.5468e-22 -0.00722106 	0.00359973 	3.06627e-22 -0.00717447 	0.00363849 	2.93183e-22 -0.00712929 	0.00367819 	2.796e-22 -0.00708554 	0.00371882 	2.65877e-22 -0.00702856 	0.00377102 	2.64331e-22 -0.00696393 	0.00383184 	2.68818e-22 -0.00656672 	0.00389863 	1.78671e-22 -0.00630304 	0.004075 	9.67177e-23 -0.00606884 	0.00428197 	1.89237e-23 -0.00580211 	0.00456073 	2.56736e-23 -0.00552648 	0.00495684 	3.16031e-23 -0.00546543 	0.00499812 	1.82355e-23 -0.00540749 	0.00504229 	4.86148e-24 -0.00535167 	0.00509027 	2.95984e-23 -0.00529848 	0.00514173 	7.61039e-23 -0.00525366 	0.00519057 	1.17834e-22 -0.00495124 	0.00537931 	1.18577e-22 -0.00468125 	0.00560699 	1.13486e-22 -0.00445072 	0.00584208 	1.02517e-22 -0.00425795 	0.00607902 	8.615e-23 -0.00399427 	0.00651058 	5.2057e-23 -0.00397786 	0.00653821 	8.61472e-23 -0.00396183 	0.00656634 	1.19944e-22 -0.00394617 	0.00659497 	1.5345e-22 -0.00394638 	0.006616 	8.20109e-23 -0.00394844 	0.00663588 	3.8386e-25 -0.00357041 	0.00680518 	-6.6084e-22 -0.00336191 	0.00715743 	-1.09317e-21 -0.00321109 	0.00756714 	-1.46666e-21 -0.00329988 	0.00785748 	-1.16204e-21 -0.00337272 	0.0080908 	-9.21323e-22 -0.00295445 	0.00844453 	-6.06063e-22 -0.00269261 	0.0087523 	-3.54571e-22 -0.00260153 	0.00895058 	-1.91376e-22 -0.00251989 	0.00917398 	-2.33933e-23 -0.00265121 	0.00952956 	1.60119e-23 -0.00248521 	0.00977323 	1.2988e-24 -0.00243694 	0.00988072 	0 -0.00240145 	0.00997934 	0 -0.00236751 	0.0100828 	0 -0.00231755 	0.0102495 	0 -0.00227664 	0.0103955 	0 -0.0022383 	0.0105499 	0 -0.00220243 	0.0107125 	0 -0.00216895 	0.0108829 	0 -0.00222968 	0.0108323 	0 -0.00199084 	0.0109305 	0 -0.00191959 	0.0112693 	0 -0.0018572 	0.0116413 	0 -0.00186477 	0.0118627 	0 -0.00202454 	0.0116422 	0 -0.00171054 	0.01179 	0 -0.00147069 	0.0120797 	0 -0.0014249 	0.0125887 	0 -0.00161031 	0.0123752 	0 -0.00179609 	0.0120432 	0 -0.00146218 	0.0123183 	0 -0.0011462 	0.0127238 	0 -0.00111569 	0.0128323 	0 -0.00134453 	0.0124793 	0 -0.00155377 	0.0120283 	0 -0.00120444 	0.0124463 	0 -0.000875857 	0.0130363 	0 -0.000833983 	0.0126801 	0 -0.00108424 	0.0122396 	0 -0.00131309 	0.0116669 	0 -0.000953179 	0.0122397 	0 -0.000713476 	0.0125909 	0 -0.000688976 	0.0121585 	0 -0.000831402 	0.0116321 	0 -0.00107589 	0.0109412 	0 -0.000710515 	0.0116764 	0 -0.000573725 	0.0116836 	0 -0.00055221 	0.0112455 	0 -0.000598277 	0.0107329 	0 -0.000853941 	0.00993422 	0 -0.000488375 	0.0108349 	0 -0.00044627 	0.0104959 	0 -0.000427784 	0.0100611 	0 -0.000409297 	0.00962633 	0 -0.000656715 	0.00874571 	0 -0.00034911 	0.00949942 	0 -0.000333558 	0.00907624 	0 -0.000318006 	0.00865306 	0 -0.000302454 	0.00822988 	0 -0.000482131 	0.00735278 	0 -0.000248623 	0.0078293 	0 -0.000235747 	0.00742382 	0 -0.000222871 	0.00701834 	0 -0.000209994 	0.00661285 	0 -0.000332912 	0.00579903 	2.86766e-37 -0.000165467 	0.00599753 	0 -0.00015483 	0.00561199 	0 -0.000144194 	0.00522645 	0 -0.000133557 	0.00484092 	0 -0.000209999 	0.00413634 	2.89615e-40 -9.91558e-05 	0.00405957 	0 -9.01302e-05 	0.00369005 	0 -8.11046e-05 	0.00332053 	0 -7.2079e-05 	0.00295101 	0 -0.000109805 	0.00238616 	-1.00451e-37 -5.01567e-05 	0.00221973 	0 -4.39947e-05 	0.00194702 	0 -3.78326e-05 	0.00167431 	0 -3.16706e-05 	0.00140161 	0 -2.65324e-05 	0.000606109 	0 -1.27641e-05 	0.000562992 	0 -1.11102e-05 	0.000490045 	0 -9.45638e-06 	0.000417098 	0 -7.80254e-06 	0.000344151 	0 0 	0 	0
-0.0291601 	4.65798e-05 	0 -0.0293782 	0.000180837 	0 -0.0294851 	0.000286295 	-7.64809e-25 -0.029463 	0.000359934 	-2.37451e-24 -0.0292769 	0.000485471 	-1.95777e-23 -0.0289621 	0.000654986 	-4.9943e-23 -0.0290924 	0.000729594 	-2.46975e-22 -0.0291506 	0.000802194 	-3.68754e-22 -0.0290931 	0.000871513 	-3.75326e-22 -0.0288156 	0.00103147 	-2.55494e-22 -0.0284384 	0.00124118 	-6.83973e-23 -0.0284823 	0.00126164 	-9.37007e-23 -0.0284994 	0.00129187 	-1.1376e-22 -0.0284121 	0.00135791 	-1.14367e-22 -0.0280212 	0.00157419 	-6.87509e-23 -0.0276052 	0.00182065 	-1.4947e-23 -0.0275706 	0.00179535 	-3.89529e-24 -0.0275329 	0.0017697 	7.16347e-24 -0.02738 	0.00185424 	-1.20756e-23 -0.0269114 	0.00212805 	-3.75249e-23 -0.0264813 	0.00240776 	-6.27156e-23 -0.0263804 	0.00234746 	-2.25722e-22 -0.0262728 	0.00228615 	-3.88801e-22 -0.0259719 	0.00240523 	-3.7676e-22 -0.0255098 	0.0027069 	-1.90034e-22 -0.0250892 	0.0030165 	-2.80946e-24 -0.0249368 	0.00293361 	1.46653e-22 -0.0247763 	0.00284915 	2.96058e-22 -0.0242662 	0.00301305 	3.08436e-22 -0.0238285 	0.00332082 	2.26817e-22 -0.0234385 	0.00365694 	1.33025e-22 -0.0232506 	0.00356473 	2.65577e-22 -0.0228687 	0.00362557 	2.99898e-22 -0.02237 	0.00379861 	2.65317e-22 -0.0218994 	0.00398114 	2.29581e-22 -0.0215563 	0.00433879 	8.8748e-23 -0.0213531 	0.00430227 	8.13242e-23 -0.0209616 	0.00444387 	1.11262e-22 -0.0205883 	0.00459268 	1.41693e-22 -0.0202342 	0.00474903 	1.72638e-22 -0.0199905 	0.0048688 	1.95597e-22 -0.0198946 	0.00492239 	1.97497e-22 -0.0198007 	0.0049768 	1.99334e-22 -0.0197087 	0.00503203 	2.01108e-22 -0.0196189 	0.00508809 	2.02816e-22 -0.0194648 	0.0051922 	2.10806e-22 -0.0189684 	0.00533975 	1.90998e-22 -0.018553 	0.00555128 	1.95219e-22 -0.018169 	0.00577783 	1.97124e-22 -0.017741 	0.00607707 	2.16064e-22 -0.017174 	0.00653291 	2.74027e-22 -0.016693 	0.00665457 	1.55403e-22 -0.016242 	0.0067944 	3.59505e-23 -0.0156917 	0.00705231 	0 -0.015245 	0.00747928 	3.88831e-23 -0.014821 	0.00798087 	7.88151e-23 -0.0146798 	0.00805093 	3.37791e-23 -0.01453 	0.00813421 	0 -0.0143455 	0.00825059 	0 -0.0141684 	0.00837222 	0 -0.0140255 	0.00847916 	0 -0.013702 	0.00873417 	0 -0.0134017 	0.00900825 	0 -0.0131253 	0.00930171 	0 -0.0127889 	0.00962858 	0 -0.0124179 	0.0100389 	0 -0.0120733 	0.0102973 	0 -0.0117616 	0.0105855 	0 -0.0114359 	0.0108839 	0 -0.011131 	0.0112072 	0 -0.0109385 	0.0114607 	0 -0.0107187 	0.0117277 	0 -0.0105129 	0.0120091 	0 -0.0103045 	0.012276 	-1.73075e-23 -0.0100968 	0.0125337 	-4.83482e-23 -0.00985323 	0.0128729 	-8.71382e-23 -0.00960738 	0.0131667 	-9.30612e-23 -0.00938327 	0.0134852 	-1.00005e-22 -0.00918555 	0.0138104 	-1.2913e-22 -0.00903434 	0.0140659 	-2.71069e-22 -0.00891881 	0.0142976 	-3.9191e-22 -0.00840588 	0.0148957 	-6.07838e-22 -0.00795284 	0.0155491 	-7.89878e-22 -0.00763083 	0.0160177 	-5.09428e-22 -0.00734352 	0.0165349 	-2.33733e-22 -0.00715762 	0.0172139 	1.22741e-22 -0.00708758 	0.0173675 	2.19447e-22 -0.00702926 	0.0174912 	2.48982e-22 -0.00698116 	0.0175884 	2.19284e-22 -0.006934 	0.017687 	1.89931e-22 -0.0068813 	0.0178011 	1.56856e-22 -0.00664794 	0.0182821 	1.4542e-22 -0.00643804 	0.0188025 	1.35304e-22 -0.00625022 	0.0193598 	1.2643e-22 -0.00617877 	0.019818 	1.30219e-22 -0.00628828 	0.0200351 	1.54255e-22 -0.00573244 	0.0206564 	9.71625e-23 -0.00520996 	0.0213641 	4.10985e-23 -0.00512427 	0.022119 	1.77448e-22 -0.00534355 	0.0224725 	3.66695e-22 -0.0055408 	0.0227854 	5.4151e-22 -0.00497228 	0.0236463 	2.4162e-22 -0.00451223 	0.0244735 	0 -0.00441071 	0.0247787 	0 -0.00451965 	0.0251417 	2.97338e-25 -0.00478383 	0.0255106 	8.15627e-25 -0.00420794 	0.0266299 	4.01152e-26 -0.00408371 	0.0270157 	0 -0.00398895 	0.0273843 	0 -0.00389924 	0.0277768 	0 -0.00403562 	0.0281719 	-1.25663e-22 -0.00377304 	0.0288181 	0 -0.00371081 	0.0290762 	0 -0.00365067 	0.0293454 	0 -0.00359258 	0.0296256 	0 -0.00350529 	0.0300783 	0 -0.00348331 	0.0302062 	0 -0.00346166 	0.0303359 	0 -0.00344032 	0.0304673 	0 -0.0034193 	0.0306005 	0 -0.00343981 	0.030563 	0 -0.00329882 	0.0310124 	0 -0.00321116 	0.0314735 	0 -0.00312785 	0.0319614 	0 -0.00304872 	0.0324752 	0 -0.00316155 	0.0321512 	0 -0.00286553 	0.0328101 	0 -0.00278128 	0.0333267 	0 -0.002701 	0.0338709 	0 -0.00263133 	0.0344078 	0 -0.0028734 	0.0334274 	0 -0.00250783 	0.0343281 	0 -0.00237137 	0.0349672 	0 -0.00229369 	0.0355583 	0 -0.00233761 	0.0355364 	0 -0.00258334 	0.0344033 	0 -0.00222273 	0.0354676 	0 -0.00198871 	0.036377 	0 -0.00191419 	0.0370038 	0 -0.00205696 	0.0364017 	0 -0.002303 	0.0351221 	0 -0.00195201 	0.0363436 	0 -0.00164492 	0.0375861 	7.55019e-38 -0.00157572 	0.0382375 	6.39085e-37 -0.00180155 	0.0370596 	1.20424e-36 -0.00204613 	0.0356417 	1.76251e-36 -0.00170854 	0.0370105 	1.14004e-36 -0.00137844 	0.0385141 	5.23826e-37 -0.00133246 	0.0389797 	7.76404e-40 -0.00158273 	0.0375304 	1.65316e-39 -0.00182684 	0.0359833 	2.51944e-39 -0.00150508 	0.0374879 	1.56658e-39 -0.00119014 	0.0391309 	6.22892e-40 -0.00116075 	0.0393981 	-3.86895e-37 -0.00141539 	0.0378339 	-9.57834e-37 -0.00166416 	0.0361637 	-1.52239e-36 -0.00135894 	0.0377944 	-9.07575e-37 -0.00106007 	0.0395663 	-2.98421e-37 -0.00104915 	0.039668 	0 -0.00131988 	0.0379921 	0 -0.00158451 	0.0361967 	0 -0.00129484 	0.0379511 	0 -0.0010114 	0.0398507 	0 -0.00101566 	0.0397921 	0 -0.0013231 	0.0379953 	0 -0.00162315 	0.0360542 	0 -0.00134711 	0.0379477 	0 -0.00107781 	0.039994 	0 -0.00108224 	0.0397286 	0 -0.00145868 	0.0377756 	0 -0.00182431 	0.0356329 	0 -0.00156157 	0.0377179 	0 -0.00130944 	0.0399423 	0 -0.00128786 	0.039284 	0 -0.00175673 	0.0371433 	0 -0.00222871 	0.0346758 	0 -0.00198663 	0.0370816 	0 -0.00179701 	0.0388218 	0 -0.0017497 	0.0377998 	0 -0.0021929 	0.0355746 	0 -0.00281543 	0.0325376 	0 -0.00262176 	0.035553 	0 -0.00247365 	0.0361814 	0 -0.00235648 	0.0344677 	0 -0.00255706 	0.0320541 	0 -0.00335366 	0.0280106 	0 -0.00328038 	0.0322521 	0 -0.00300417 	0.0299812 	0 -0.00270473 	0.0269928 	0 -0.00240528 	0.0240043 	0 -0.00304811 	0.0187 	0 -0.00294786 	0.021227 	0 -0.00231774 	0.0166896 	0 -0.00168762 	0.0121523 	0 -0.0010575 	0.00761491 	0 0 	0 	0
-0.0423721 	5.62056e-05 	0 -0.0423404 	0.000264037 	-2.21802e-23 -0.0422581 	0.000492741 	-5.06496e-23 -0.0421961 	0.00072196 	-7.9271e-23 -0.0421544 	0.000951688 	-1.08044e-22 -0.0420894 	0.00117233 	-1.37241e-22 -0.0419431 	0.00136438 	-1.70372e-22 -0.0417597 	0.00157903 	-1.72842e-22 -0.0415957 	0.00179518 	-1.74456e-22 -0.0414513 	0.00201284 	-1.75204e-22 -0.0414073 	0.0020904 	-1.75159e-22 -0.0413933 	0.00211905 	-1.75741e-22 -0.0413796 	0.00214774 	-1.76317e-22 -0.0413663 	0.00217645 	-1.76887e-22 -0.0413534 	0.00220519 	-1.77451e-22 -0.0413307 	0.00223888 	-1.7896e-22 -0.0410574 	0.00244262 	-1.48033e-22 -0.0407993 	0.00264784 	-1.17143e-22 -0.0405612 	0.00285568 	-8.60265e-23 -0.0403435 	0.00306619 	-5.46807e-23 -0.0400336 	0.00333806 	-2.8773e-23 -0.0397246 	0.00353046 	-2.92884e-23 -0.0394063 	0.0037303 	-2.12956e-23 -0.0391082 	0.0039338 	-1.3284e-23 -0.0388307 	0.00414102 	-5.25333e-24 -0.0383132 	0.00449641 	2.4599e-23 -0.037958 	0.00464949 	1.78668e-22 -0.0376026 	0.00485062 	2.16928e-22 -0.037268 	0.00505657 	2.56264e-22 -0.036855 	0.00532642 	2.37711e-22 -0.0362228 	0.00574934 	7.59605e-23 -0.0358106 	0.00587987 	4.73763e-23 -0.0354218 	0.00603315 	2.82053e-23 -0.0350747 	0.00624971 	3.97356e-23 -0.0344299 	0.00667528 	7.06906e-23 -0.0338115 	0.00712602 	1.01812e-22 -0.0333745 	0.00725506 	5.53428e-23 -0.0329549 	0.00739075 	8.68221e-24 -0.0323036 	0.00770181 	0 -0.031699 	0.00816001 	1.57944e-23 -0.0311273 	0.0086466 	3.15027e-23 -0.0306978 	0.00879322 	4.74179e-24 -0.0300593 	0.00911208 	0 -0.0294079 	0.00948473 	0 -0.0287982 	0.00987891 	0 -0.0282589 	0.0102759 	0 -0.0282498 	0.0102841 	0 -0.0282407 	0.0102924 	0 -0.0282316 	0.0103006 	0 -0.0282209 	0.0103097 	0 -0.0282069 	0.0103205 	0 -0.0275549 	0.01071 	0 -0.0269496 	0.0111298 	0 -0.0263884 	0.0115772 	0 -0.025774 	0.0121011 	0 -0.0250041 	0.0127844 	0 -0.0243765 	0.0131723 	0 -0.0237791 	0.0136027 	0 -0.0230475 	0.0141416 	0 -0.0223817 	0.0147279 	0 -0.0217042 	0.0154479 	0 -0.0217022 	0.0154505 	0 -0.0217003 	0.0154531 	0 -0.0216983 	0.0154558 	0 -0.0216957 	0.0154585 	0 -0.021693 	0.0154612 	0 -0.0209384 	0.0160785 	0 -0.0202532 	0.01676 	0 -0.0196216 	0.0174994 	1.39198e-25 -0.0189204 	0.018256 	1.52277e-24 -0.0180976 	0.0193385 	3.34707e-24 -0.0180089 	0.0194572 	3.35532e-24 -0.0179221 	0.0195778 	3.36494e-24 -0.017832 	0.019691 	-2.16848e-24 -0.0177365 	0.0197932 	-1.54587e-23 -0.0176474 	0.019892 	-2.80859e-23 -0.016877 	0.0207205 	-1.87717e-23 -0.0161852 	0.0216383 	-5.97159e-24 -0.0155394 	0.0224893 	-4.30353e-23 -0.014982 	0.0233523 	-1.22832e-22 -0.0145998 	0.0242082 	-2.16467e-22 -0.0145035 	0.024409 	-2.86375e-22 -0.014409 	0.0246059 	-3.40415e-22 -0.0143137 	0.0247587 	-2.73452e-22 -0.0142203 	0.0249135 	-2.06956e-22 -0.0141188 	0.0250873 	-1.3381e-22 -0.0136812 	0.0257899 	2.07032e-22 -0.0132845 	0.0265436 	5.36738e-22 -0.012927 	0.0273457 	8.55636e-22 -0.012693 	0.0279228 	5.94771e-22 -0.01253 	0.0283908 	2.14413e-22 -0.0118945 	0.0294421 	-1.03677e-22 -0.0113119 	0.0305756 	-4.26092e-22 -0.0109413 	0.0312644 	-4.21998e-23 -0.0107189 	0.0320197 	7.11976e-22 -0.0106279 	0.0327523 	1.65988e-21 -0.0102817 	0.0335986 	2.31569e-21 -0.0100459 	0.0341691 	2.07328e-21 -0.00984865 	0.0346718 	1.57716e-21 -0.00966118 	0.0351926 	1.09152e-21 -0.0094011 	0.0359789 	3.96991e-22 -0.00931683 	0.0362628 	2.97559e-22 -0.00923483 	0.0365512 	1.98367e-22 -0.00915504 	0.036844 	9.94124e-23 -0.00908041 	0.0371355 	2.83459e-24 -0.00914171 	0.0371858 	2.99508e-24 -0.00864972 	0.0380938 	-8.96231e-23 -0.00838442 	0.0390622 	-2.99729e-22 -0.00814064 	0.0400766 	-5.1375e-22 -0.00804099 	0.0408823 	-7.31176e-22 -0.00827726 	0.0410343 	-9.4341e-22 -0.00761547 	0.0421736 	-6.19366e-22 -0.00703844 	0.0433911 	-1.44627e-22 -0.00685872 	0.0445372 	1.25014e-21 -0.00715085 	0.0446991 	2.35727e-21 -0.00742645 	0.0448271 	3.4267e-21 -0.00675964 	0.0461915 	1.91373e-21 -0.00611932 	0.0476574 	4.21461e-22 -0.00596374 	0.0482851 	6.84064e-25 -0.00628562 	0.0484112 	3.59939e-24 -0.00659157 	0.0484982 	6.43528e-24 -0.00592454 	0.0500811 	2.67955e-24 -0.00542777 	0.0513854 	0 -0.00532291 	0.0517742 	0 -0.00545929 	0.0519824 	-3.01452e-21 -0.00578543 	0.0520089 	-8.44083e-21 -0.00512354 	0.0537968 	-1.6372e-21 -0.00488682 	0.0545384 	0 -0.00478544 	0.0549531 	0 -0.00468719 	0.0553877 	-1.27454e-26 -0.00502414 	0.0553332 	-1.06697e-23 -0.00446259 	0.0570305 	0 -0.00436338 	0.0574421 	0 -0.00426649 	0.0578744 	0 -0.00417189 	0.0583272 	0 -0.00432067 	0.0584291 	2.50709e-21 -0.0039637 	0.0596445 	3.25771e-37 -0.00387182 	0.0600665 	9.53897e-37 -0.00378192 	0.0605085 	1.58093e-36 -0.00369395 	0.0609702 	2.20688e-36 -0.00369446 	0.0612842 	2.94338e-36 -0.00354712 	0.0618764 	3.20259e-36 -0.00349573 	0.0621448 	2.67603e-36 -0.00344498 	0.0624207 	2.15228e-36 -0.00339488 	0.0627041 	1.63128e-36 -0.00332882 	0.0630924 	9.39152e-37 -0.00330456 	0.0632425 	7.42336e-37 -0.00328045 	0.0633944 	5.4561e-37 -0.00325649 	0.0635481 	3.48973e-37 -0.00323268 	0.0637035 	1.52426e-37 -0.00323358 	0.0636917 	4.45951e-39 -0.00314879 	0.0641981 	-5.06056e-37 -0.0030881 	0.06463 	-1.066e-36 -0.00302857 	0.0650769 	-1.62671e-36 -0.00297021 	0.0655386 	-2.18819e-36 -0.00300579 	0.0653186 	-2.74974e-36 -0.00288257 	0.0661406 	-2.13492e-36 -0.00285423 	0.0665819 	-1.52147e-36 -0.00282654 	0.0670323 	-9.08414e-37 -0.00279951 	0.0674916 	-2.95756e-37 -0.0029214 	0.0667368 	0 -0.00276795 	0.0679105 	0 -0.00279259 	0.0683788 	0 -0.00281715 	0.068846 	0 -0.00284164 	0.0693121 	0 -0.00306052 	0.0679817 	0 -0.00286842 	0.0695634 	0 -0.00297868 	0.0700929 	0 -0.00308752 	0.070604 	0 -0.00319498 	0.0710973 	0 -0.00353557 	0.0690579 	0 -0.00327284 	0.0711429 	0 -0.00351215 	0.0718133 	0 -0.00375464 	0.0724165 	0 -0.00402801 	0.0724978 	0 -0.00449097 	0.0698736 	0 -0.0042489 	0.0722794 	0 -0.00449739 	0.0736 	0 -0.00494665 	0.0743782 	0 -0.00546285 	0.0733878 	0 -0.00606433 	0.0700849 	0 -0.00587067 	0.0731002 	0 -0.00598533 	0.0755879 	0 -0.00674176 	0.0766893 	0 -0.00751023 	0.0734545 	0 -0.00824783 	0.068888 	0 -0.00817455 	0.0731295 	0 -0.0081229 	0.0775561 	0 -0.00892576 	0.0776611 	0 -0.00975995 	0.0713068 	0 -0.0104968 	0.0643973 	0 -0.0106946 	0.0711662 	0 -0.0109478 	0.0782855 	0 -0.0103238 	0.0743397 	0 -0.010779 	0.0641459 	0 -0.0110567 	0.0530835 	0 -0.0117706 	0.0652617 	0 -0.0111698 	0.0648735 	0 -0.00966353 	0.0561254 	0 -0.0081573 	0.0473773 	0 -0.00685452 	0.0297638 	0 -0.007523 	0.0440323 	0 -0.00611164 	0.0357716 	0 -0.00470029 	0.0275109 	0 -0.00328894 	0.0192502 	0 0 	0 	0