# vtk DataFile Version 2.0
track0
ASCII
DATASET POLYDATA
POINTS 37960 float
0.05 8.57988e-20 2.57396e-18
0.05 0.00217391 -1.05592e-17
0.05 0.00217391 -1.05592e-17
0.05 0.00217391 -1.05592e-17
0.05 0.00217391 -1.05592e-17
0.05 0.00217391 -1.05592e-17
0.05 0.00217391 -1.38778e-17
0.0493333 0.00217583 -6.66134e-18
0.0486667 0.0021786 -5.0654e-18
0.048 0.00218279 -4.37932e-18
0.0473334 0.00219005 -7.11661e-18
0.0466667 0.00219991 0
0.046 0.00221228 7.21645e-18
0.0453333 0.00222396 7.07769e-18
0.0446667 0.00223616 6.81174e-18
0.044 0.00225129 8.05768e-18
0.0433333 0.00226989 -6.93889e-18
0.0426667 0.00229239 5.82867e-18
0.0419999 0.00231284 8.81195e-18
0.0413332 0.00233349 8.88159e-18
0.0406666 0.00235702 9.25868e-18
0.04 0.00238449 0
0.0393333 0.00241715 -3.19189e-18
0.0386665 0.0024466 -6.10598e-18
0.0379997 0.00247678 -7.18618e-18
0.0373331 0.00250989 -2.87436e-18
0.0366667 0.00254681 0
0.036 0.0025901 -3.19189e-18
0.0353331 0.00262926 -4.02201e-18
0.0346663 0.00267069 -3.0166e-18
0.0339997 0.00271527 -4.72145e-18
0.0333333 0.0027631 -6.93889e-18
0.0326667 0.00281808 -1.13798e-17
0.0319998 0.00286994 -1.0963e-17
0.0313331 0.00292519 -1.37252e-17
0.0306668 0.00298396 -9.1859e-18
0.03 0.00304645 -6.93889e-18
0.0294418 0.00310383 -1.4336e-17
0.0288836 0.0031609 -2.10392e-17
0.0283257 0.0032207 -1.54659e-17
0.0277681 0.00328333 -1.90658e-17
0.027343 0.00333333 -1.84334e-17
0.0272077 0.00334981 -1.80774e-17
0.0270725 0.00336647 -2.25785e-17
0.0269373 0.00338331 -2.01408e-17
0.0268021 0.00340034 -1.77029e-17
0.0266667 0.00341758 -1.92185e-17
0.026 0.00350522 -1.48362e-17
0.0253338 0.00359613 -1.32213e-17
0.0246682 0.00369183 -2.40805e-17
0.0240034 0.0037925 -1.56875e-17
0.0233333 0.0038993 -1.62081e-17
0.0226667 0.00402425 -1.50284e-17
0.0219994 0.00414593 -1.80066e-17
0.0213331 0.0042731 -1.71372e-17
0.0206681 0.00440636 -1.87057e-17
0.02 0.0045564 -1.18739e-17
0.0193333 0.00473361 -1.05221e-17
0.0186665 0.00491011 -1.50612e-17
0.0179994 0.00508583 -1.53981e-17
0.0173358 0.00527403 -1.28463e-17
0.0166667 0.00549326 -1.11022e-17
0.0160425 0.00572794 -6.7675e-18
0.0154192 0.00596495 -7.97336e-18
0.0148005 0.00621366 -1.01662e-17
0.0141893 0.00648036 -1.06934e-17
0.0137965 0.00666667 -2.15904e-18
0.0137038 0.00671305 -4.78034e-18
0.0136115 0.00675999 -1.851e-18
0.0135194 0.00680749 5.2412e-18
0.0134277 0.00685555 2.75954e-18
0.0133333 0.00690592 6.54045e-18
0.0126667 0.00726976 1.14857e-17
0.0120126 0.00765587 1.56999e-17
0.0113741 0.0080671 1.60021e-17
0.0107529 0.00850409 2.00289e-17
0.01 0.00909544 2.498e-17
0.00979882 0.00927635 2.54826e-17
0.00959958 0.00945939 2.59803e-17
0.0094023 0.00964455 2.62625e-17
0.00920705 0.00983184 2.71626e-17
0.00903554 0.01 2.498e-17
0.00856177 0.0104736 2.33876e-17
0.00811124 0.0109694 1.93945e-17
0.00768537 0.0114866 1.70856e-17
0.00728297 0.0120222 2.19594e-17
0.00666667 0.0129143 1.11022e-17
0.00661601 0.0129981 9.63009e-18
0.00656568 0.0130821 1.23218e-17
0.00651567 0.0131663 9.463e-18
0.006466 0.0132507 8.66085e-18
0.00641752 0.0133333 6.93889e-18
0.0060274 0.014 9.29812e-18
0.00567339 0.0146865 8.15483e-18
0.00534957 0.0153878 7.46518e-18
0.00505243 0.0161008 7.15661e-18
0.00481877 0.0166667 3.53714e-18
0.00454532 0.0173333 -3.21746e-18
0.00431051 0.0180146 9.28772e-19
0.00410205 0.0187043 1.15029e-18
0.00390399 0.0193971 4.72687e-19
0.00374093 0.02 -1.2972e-18
0.00365941 0.0202955 -6.03376e-18
0.00358511 0.020593 -1.86042e-18
0.00351307 0.020891 -5.06059e-18
0.00344282 0.0211894 -9.77189e-19
0.00333333 0.021667 -6.93889e-18
0.0032601 0.0220002 -9.8364e-18
0.00318879 0.0223339 -4.40406e-18
0.00311932 0.022668 1.03138e-18
0.00305166 0.0230025 7.85759e-18
0.0029865 0.0233333 6.93889e-18
0.00285148 0.024 6.52256e-18
0.00273037 0.0246693 8.18345e-18
0.00261656 0.0253399 5.95383e-18
0.0025095 0.0260117 4.18707e-18
0.00240764 0.0266667 1.11022e-17
0.00229301 0.0273333 1.83187e-17
0.00219655 0.0280029 2.58892e-17
0.00211386 0.0286742 2.81534e-17
0.00203659 0.0293463 2.33231e-17
0.00195177 0.03 1.80411e-17
0.00185283 0.0306667 2.2482e-17
0.00177322 0.0313359 2.31022e-17
0.00171201 0.0320071 2.53815e-17
0.00165288 0.0326785 2.31726e-17
0.00158181 0.0333333 2.15778e-17
0.00149542 0.034 1.87114e-17
0.00142975 0.034669 1.78063e-17
0.00138325 0.0353397 1.73108e-17
0.00133778 0.0360104 1.64004e-17
0.00127848 0.0366667 2.56265e-17
0.00120247 0.0373333 2.71408e-17
0.00114882 0.0380022 3.29237e-17
0.00111022 0.038672 3.6559e-17
0.00107161 0.0393419 3.71179e-17
0.00102286 0.04 3.3685e-17
0.000955667 0.0406667 3.86541e-17
0.000912891 0.0413353 4.09491e-17
0.000878998 0.0420045 3.82952e-17
0.000845105 0.0426737 3.72585e-17
0.000806242 0.0433333 3.95968e-17
0.000746688 0.044 3.20632e-17
0.00071414 0.0446685 3.08715e-17
0.000684322 0.0453372 3.58677e-17
0.000654503 0.0460058 3.30194e-17
0.000625034 0.0466667 3.36536e-17
0.000572152 0.0473333 3.73672e-17
0.000545879 0.0480016 3.18451e-17
0.000519605 0.0486698 3.10116e-17
0.000493332 0.0493381 3.23274e-17
0.000467307 0.05 3.5304e-17
0.000420233 0.0506667 4.55132e-17
0.000397006 0.0513346 3.97253e-17
0.000373778 0.0520025 4.31557e-17
0.000350551 0.0526704 4.27373e-17
0.000327499 0.0533333 3.27613e-17
0.000285362 0.054 4.71256e-17
0.000264643 0.0546677 4.89659e-17
0.000243925 0.0553354 4.76668e-17
0.000223206 0.056003 5.03713e-17
0.000202613 0.0566667 4.96226e-17
0.000164426 0.0573333 5.46128e-17
0.000145561 0.0580008 4.63883e-17
0.000126697 0.0586683 5.11369e-17
0.000107833 0.0593358 5.03722e-17
8.90615e-05 0.06 4.98117e-17
7.12492e-05 0.0603348 5.00521e-17
6.2266e-05 0.06067 4.88905e-17
5.32829e-05 0.0610052 5.08515e-17
4.42997e-05 0.0613404 5.35063e-17
0 0.0629934 4.35872e-17
0.05 0.00434783 5.94331e-18
0.0493333 0.00434989 6.63376e-18
0.0486667 0.00435479 3.15616e-18
0.048 0.00436193 2.98364e-18
0.0473334 0.00437069 8.59688e-18
0.0466667 0.00438238 5.88577e-18
0.046 0.00439812 1.00229e-17
0.0453334 0.00441533 1.20759e-17
0.0446668 0.00443405 1.26989e-17
0.0440002 0.00445436 1.21704e-17
0.0433333 0.0044786 1.52618e-17
0.0426667 0.00450807 1.92745e-17
0.042 0.00453786 2.15546e-17
0.0413334 0.0045682 2.44942e-17
0.0406668 0.00460016 2.19546e-17
0.04 0.00463776 1.89913e-17
0.0393333 0.00468186 1.92648e-17
0.0386666 0.00472532 1.5723e-17
0.0379999 0.00476813 1.64756e-17
0.0373333 0.00481323 1.59261e-17
0.0366667 0.00486587 1.48711e-17
0.036 0.00492641 1.6608e-17
0.0353332 0.00498561 1.37723e-17
0.0346663 0.00504344 1.41238e-17
0.0339997 0.00510495 1.89137e-17
0.0333333 0.00517541 1.80411e-17
0.0326667 0.0052553 1.48492e-17
0.0319998 0.00533345 1.26274e-17
0.0313327 0.00540982 9.95861e-18
0.0306664 0.00549222 1.13234e-17
0.03 0.00558467 1.11022e-17
0.0293333 0.00568826 1.06859e-17
0.0286664 0.00579006 9.1598e-18
0.028 0.00589527 1.27319e-17
0.0273348 0.00600774 1.20716e-17
0.0266667 0.00612866 6.93889e-18
0.0261299 0.00623626 6.44505e-18
0.0255931 0.00634397 5.25728e-18
0.0250575 0.00645708 4.11102e-18
0.024523 0.00657584 -3.72113e-18
0.0241346 0.00666667 -6.19162e-18
0.0239744 0.00670556 -7.31252e-18
0.0238142 0.00674503 -1.32909e-17
0.0236543 0.00678509 -8.86115e-18
0.0234945 0.00682575 -4.43167e-18
0.0233333 0.00686739 -5.88539e-18
0.0226667 0.0070446 -3.40493e-18
0.0220025 0.00723096 -6.49085e-18
0.0213415 0.00742816 -6.0165e-18
0.0206839 0.00763671 -1.58299e-17
0.02 0.00787043 -1.22586e-17
0.0193333 0.00812352 -1.21468e-17
0.0186708 0.00838724 -1.08872e-17
0.0180128 0.0086622 -1.23134e-17
0.0173624 0.00895436 -1.07487e-17
0.0166667 0.00929572 -1.38778e-17
0.0164054 0.00943658 -1.9864e-17
0.0161452 0.00957949 -1.85605e-17
0.0158863 0.00972471 -1.95172e-17
0.0156292 0.00987299 -1.49256e-17
0.0154149 0.01 -1.94289e-17
0.0149986 0.0102526 -2.06599e-17
0.0145885 0.0105151 -2.04783e-17
0.0141849 0.0107876 -2.08471e-17
0.0137883 0.0110702 -1.4935e-17
0.0133333 0.0114146 -1.67539e-17
0.0128615 0.0117983 -1.46636e-17
0.0124 0.0121945 -2.16771e-17
0.0119495 0.0126031 -1.85121e-17
0.0115105 0.0130241 -2.15917e-17
0.0112059 0.0133333 -7.19191e-18
0.0109647 0.0135881 -9.63931e-18
0.0107292 0.0138482 -1.63071e-17
0.0104995 0.0141134 -1.7227e-17
0.0102755 0.0143834 -1.95268e-17
0.01 0.0147296 -1.187e-17
0.00970746 0.015117 -8.81385e-18
0.00942371 0.0155109 -9.28639e-18
0.0091487 0.015911 -5.52119e-18
0.008882 0.0163166 -6.46482e-18
0.00865951 0.0166667 0
0.00826094 0.017312 -5.90542e-18
0.00789173 0.0179745 -5.49777e-18
0.00755039 0.0186519 -4.75539e-18
0.00722839 0.0193386 -5.12159e-18
0.00693958 0.02 7.62062e-18
0.00688499 0.0201319 4.70872e-18
0.0068315 0.0202643 -6.33963e-18
0.00677888 0.020397 -6.11774e-18
0.00672696 0.0205299 -1.99343e-18
0.00666667 0.0206867 3.79712e-18
0.00646674 0.021216 6.50714e-18
0.0062765 0.0217489 1.04525e-17
0.00609545 0.022285 1.43143e-17
0.00592304 0.0228239 1.37284e-17
0.00576539 0.0233333 1.11022e-17
0.00555764 0.024 1.41553e-17
0.00537178 0.0246731 1.23405e-17
0.00520599 0.0253514 1.40552e-17
0.00504859 0.0260317 1.5575e-17
0.00489771 0.0266667 1.80458e-17
0.00473558 0.0273333 2.39725e-17
0.00459394 0.0280047 1.83435e-17
0.00446994 0.0286795 1.74647e-17
0.00434991 0.029355 1.62313e-17
0.00423286 0.03 1.93187e-17
0.00410661 0.0306667 1.259e-17
0.00399919 0.0313366 1.01376e-17
0.00389727 0.0320074 8.45306e-18
0.00379878 0.0326788 1.4274e-17
0.00370606 0.0333333 2.0196e-17
0.00363152 0.0338426 2.41173e-17
0.00356418 0.0343529 2.76813e-17
0.00349869 0.0348634 3.00283e-17
0.00343499 0.0353742 2.67855e-17
0.00333333 0.0362124 2.498e-17
0.00332281 0.0363033 2.35747e-17
0.00331234 0.0363941 2.91084e-17
0.00330192 0.036485 3.04788e-17
0.00329155 0.0365759 2.90738e-17
0.00328123 0.0366667 3.60822e-17
0.00320523 0.0373333 3.56659e-17
0.0031326 0.0380004 3.87184e-17
0.0030627 0.0386677 3.70193e-17
0.00299542 0.0393353 3.69073e-17
0.00293095 0.04 4.30211e-17
0.00286376 0.0406667 4.32987e-17
0.00280339 0.041334 4.63507e-17
0.00274546 0.0420015 5.03688e-17
0.00268986 0.0426693 4.47251e-17
0.00263679 0.0433333 3.60822e-17
0.00257724 0.044 4.1217e-17
0.00252639 0.0446674 3.69831e-17
0.00247864 0.045335 3.60467e-17
[...]
POINT_DATA 37960
 FIELD attributes 1
U 3 37960 float
-5.7525e-19 	-1.15812e-21 	0
-0.013503 	3.87364e-05 	0 -0.013503 	3.87364e-05 	0 -0.013503 	3.87364e-05 	0 -0.013503 	3.87364e-05 	0 -0.013503 	3.87364e-05 	0 -0.013503 	3.87364e-05 	0 -0.0138217 	5.74909e-05 	0 -0.0140463 	8.83335e-05 	-6.70978e-25 -0.0140057 	0.000152477 	-3.19134e-24 -0.0137631 	0.000203498 	-5.72311e-24 -0.0134521 	0.000249686 	-8.26499e-24 -0.0137635 	0.000241222 	3.19978e-22 -0.0139377 	0.00025499 	5.37493e-22 -0.0138452 	0.000314126 	5.30096e-22 -0.0136221 	0.000380029 	3.16713e-22 -0.0133358 	0.000450127 	-1.30241e-23 -0.0136278 	0.000417937 	1.62135e-22 -0.0137185 	0.000424951 	2.69335e-22 -0.0135839 	0.000479419 	2.95165e-22 -0.0133902 	0.000551842 	2.38909e-22 -0.0131383 	0.000643651 	9.51701e-23 -0.0134015 	0.000591967 	6.98655e-23 -0.0133814 	0.000605581 	6.45205e-23 -0.0132166 	0.000656454 	7.04591e-23 -0.0130466 	0.000722796 	8.29133e-23 -0.0128365 	0.000833596 	1.14547e-22 -0.0130637 	0.000767125 	8.65101e-23 -0.0129142 	0.000802402 	6.08172e-23 -0.0127316 	0.000851329 	3.55501e-23 -0.0125633 	0.000901792 	1.04453e-23 -0.0124019 	0.00102282 	1.11561e-23 -0.0125092 	0.000972788 	-5.38853e-23 -0.0123075 	0.0010199 	-4.83981e-23 -0.0121194 	0.00106885 	-4.24763e-23 -0.0119454 	0.0011197 	-3.61015e-23 -0.0118121 	0.00121418 	6.94054e-24 -0.0117792 	0.00120427 	-3.24248e-23 -0.011613 	0.00124471 	-2.31381e-23 -0.0114563 	0.00128671 	-1.33815e-23 -0.0113095 	0.00133034 	-3.13794e-24 -0.0112053 	0.0013649 	5.06008e-24 -0.0111744 	0.00137647 	7.82165e-24 -0.0111443 	0.00138814 	1.06153e-23 -0.0111147 	0.00139992 	1.34413e-23 -0.0110858 	0.00141181 	1.62997e-23 -0.0110249 	0.00144935 	6.18902e-24 -0.0108168 	0.001476 	4.90403e-24 -0.0106361 	0.00152926 	5.7612e-24 -0.0104695 	0.00158539 	6.5953e-24 -0.0103175 	0.0016445 	7.4053e-24 -0.00999162 	0.00187267 	3.94363e-23 -0.00969501 	0.001768 	2.95007e-22 -0.00953067 	0.00181904 	3.5733e-22 -0.00938582 	0.00188072 	4.12966e-22 -0.00914739 	0.00205432 	3.40362e-22 -0.00883436 	0.00234827 	1.41357e-22 -0.00857286 	0.00226902 	3.55863e-22 -0.00830979 	0.0021891 	5.70355e-22 -0.00804118 	0.00228028 	5.82773e-22 -0.00778751 	0.0025516 	3.95703e-22 -0.00757487 	0.00284809 	2.09698e-22 -0.00737717 	0.0028052 	3.83726e-22 -0.0071172 	0.00286098 	4.13279e-22 -0.00683916 	0.00298441 	3.57588e-22 -0.00659267 	0.00312639 	2.98868e-22 -0.00645416 	0.00323186 	2.58498e-22 -0.0064178 	0.00326226 	2.48896e-22 -0.00638238 	0.00329328 	2.39205e-22 -0.00634791 	0.00332493 	2.29426e-22 -0.00630245 	0.00336515 	2.28443e-22 -0.00625086 	0.00341147 	2.31736e-22 -0.00590402 	0.00348548 	1.56572e-22 -0.00566057 	0.0036456 	8.71712e-23 -0.00544656 	0.00383161 	1.77317e-23 -0.00519567 	0.00408055 	2.35764e-23 -0.00493317 	0.00443623 	2.87045e-23 -0.00487405 	0.00447773 	1.65796e-23 -0.00481812 	0.00452221 	4.44858e-24 -0.00476376 	0.00456951 	2.59405e-23 -0.00471171 	0.00461974 	6.69043e-23 -0.00466843 	0.00466704 	1.03276e-22 -0.00439913 	0.00484112 	1.03291e-22 -0.00415845 	0.00504972 	9.8444e-23 -0.00395303 	0.00526152 	8.87083e-23 -0.00378084 	0.00547296 	7.45213e-23 -0.00354234 	0.00586011 	4.51077e-23 -0.00352695 	0.00588665 	7.41092e-23 -0.00351192 	0.00591367 	1.02843e-22 -0.00349725 	0.00594117 	1.3131e-22 -0.00349702 	0.00596078 	7.10474e-23 -0.00349879 	0.00597903 	2.82281e-25 -0.00316499 	0.00613771 	-5.51188e-22 -0.00298124 	0.00645621 	-9.04546e-22 -0.00284488 	0.00682631 	-1.21719e-21 -0.0029234 	0.00707986 	-9.62119e-22 -0.00298786 	0.00728442 	-7.59368e-22 -0.00262039 	0.00760221 	-5.03502e-22 -0.00238285 	0.00788441 	-2.91881e-22 -0.00230375 	0.00805873 	-1.52551e-22 -0.00223259 	0.00825452 	-9.32301e-24 -0.00236584 	0.00857685 	7.6538e-25 -0.00220259 	0.00881665 	5.73595e-26 -0.00215699 	0.00892156 	0 -0.00212322 	0.00901918 	0 -0.00209106 	0.00912189 	0 -0.00204217 	0.00929397 	0 -0.00201147 	0.00941153 	0 -0.00198246 	0.00953476 	0 -0.0019551 	0.00966348 	0 -0.00192933 	0.0097975 	0 -0.00197609 	0.0097572 	0 -0.00178546 	0.00986752 	0 -0.00172454 	0.0101618 	0 -0.00167099 	0.010484 	0 -0.00166552 	0.01071 	0 -0.00180744 	0.0105114 	0 -0.00153347 	0.0106446 	0 -0.00134436 	0.0109148 	0 -0.00130561 	0.0113542 	0 -0.00145418 	0.0112083 	0 -0.00161984 	0.0109141 	0 -0.00132696 	0.0111553 	0 -0.00104932 	0.0115076 	0 -0.00102786 	0.0116701 	0 -0.00123274 	0.0113588 	0 -0.00142055 	0.0109622 	0 -0.0011117 	0.0113251 	0 -0.000820634 	0.0118349 	0 -0.000785003 	0.0115807 	0 -0.00101152 	0.0111943 	0 -0.00121904 	0.0106922 	0 -0.000897425 	0.0111883 	0 -0.000666083 	0.0115581 	0 -0.0006437 	0.0111697 	0 -0.00079297 	0.010703 	0 -0.00101763 	0.0100971 	0 -0.000686745 	0.0107352 	0 -0.00054667 	0.0107935 	0 -0.000526374 	0.0103928 	0 -0.000584453 	0.00991974 	0 -0.000823471 	0.00921818 	0 -0.000487047 	0.0100039 	0 -0.000434178 	0.00973617 	0 -0.00041605 	0.00932965 	0 -0.000397921 	0.00892312 	0 -0.000645895 	0.00814259 	0 -0.000347871 	0.00884784 	0 -0.000331897 	0.00844154 	0 -0.000315922 	0.00803525 	0 -0.000299948 	0.00762895 	0 -0.000482835 	0.00683796 	0 -0.000252707 	0.00726688 	0 -0.00023874 	0.00686522 	0 -0.000224772 	0.00646357 	0 -0.000210804 	0.00606191 	0 -0.000336028 	0.00531641 	2.64555e-37 -0.000169164 	0.00545149 	0 -0.000156882 	0.00505569 	0 -0.0001446 	0.00465989 	0 -0.000132318 	0.00426409 	0 -0.00020684 	0.00361101 	2.6699e-40 -9.71136e-05 	0.00343623 	0 -8.59718e-05 	0.00304199 	0 -7.483e-05 	0.00264776 	0 -6.36883e-05 	0.00225352 	0 -9.19422e-05 	0.00172837 	-7.1827e-38 -4.33467e-05 	0.00161743 	0 -3.78815e-05 	0.0014135 	0 -3.24163e-05 	0.00120958 	0 -2.69512e-05 	0.00100565 	0 0 	0 	0
-0.0262087 	8.12794e-05 	0 -0.0264091 	0.000193924 	0 -0.0265063 	0.000283792 	-1.17166e-24 -0.0264834 	0.000348252 	-3.64936e-24 -0.026304 	0.000460986 	-3.01504e-23 -0.0260036 	0.00061399 	-7.66038e-23 -0.0261274 	0.000674621 	-3.77655e-22 -0.026184 	0.000735369 	-5.66159e-22 -0.02613 	0.000796121 	-5.77013e-22 -0.0258668 	0.000940015 	-3.99758e-22 -0.0255118 	0.00112803 	-1.25903e-22 -0.0255606 	0.00114188 	-2.40873e-22 -0.025584 	0.00116471 	-3.28307e-22 -0.025504 	0.00122275 	-3.07199e-22 -0.0251364 	0.00141721 	-1.46589e-22 -0.0247476 	0.00163726 	3.66694e-23 -0.0247283 	0.00161192 	2.52878e-22 -0.0247057 	0.00158622 	4.69148e-22 -0.0245642 	0.00166177 	4.72261e-22 -0.024129 	0.0019056 	2.7693e-22 -0.023728 	0.00215467 	8.12598e-23 -0.0236508 	0.00209966 	6.48944e-23 -0.0235675 	0.0020437 	4.85867e-23 -0.0232939 	0.00214948 	4.01776e-23 -0.0228647 	0.00241769 	3.79916e-23 -0.0224721 	0.00269293 	3.59156e-23 -0.0223496 	0.00261907 	1.09871e-22 -0.0222198 	0.00254388 	1.838e-22 -0.0217599 	0.00269059 	1.93e-22 -0.0213538 	0.00296275 	1.45218e-22 -0.0209884 	0.00326131 	8.93621e-23 -0.0208341 	0.0031801 	1.85238e-22 -0.0204958 	0.0032357 	2.10531e-22 -0.0200479 	0.00338964 	1.87302e-22 -0.0196246 	0.00355196 	1.63234e-22 -0.0193009 	0.00386891 	6.32741e-23 -0.0191268 	0.00383801 	5.86871e-23 -0.0187745 	0.00396446 	8.38031e-23 -0.0184383 	0.0040973 	1.09296e-22 -0.0181189 	0.00423684 	1.35181e-22 -0.0178991 	0.0043436 	1.54338e-22 -0.0178124 	0.00439133 	1.56419e-22 -0.0177274 	0.00443979 	1.58451e-22 -0.0176442 	0.00448897 	1.60434e-22 -0.0175629 	0.00453889 	1.62366e-22 -0.0174227 	0.00463101 	1.68757e-22 -0.0169786 	0.0047641 	1.53527e-22 -0.0166033 	0.00495329 	1.57733e-22 -0.0162555 	0.00515585 	1.6006e-22 -0.0158667 	0.00542192 	1.75822e-22 -0.0153471 	0.00582636 	2.2296e-22 -0.0149186 	0.00593832 	1.26664e-22 -0.0145166 	0.00606655 	2.96876e-23 -0.0140217 	0.00629767 	0 -0.0136113 	0.00667882 	3.28916e-23 -0.0132179 	0.00712562 	6.61945e-23 -0.0130906 	0.00719072 	2.83976e-23 -0.012955 	0.00726741 	0 -0.0127863 	0.00737311 	0 -0.0126242 	0.00748359 	0 -0.0124938 	0.00758036 	0 -0.0122014 	0.00780953 	0 -0.0119295 	0.00805573 	0 -0.0116787 	0.00831925 	0 -0.0113742 	0.00861045 	0 -0.0110374 	0.00897645 	0 -0.0107283 	0.00921173 	0 -0.0104481 	0.00947348 	0 -0.0101562 	0.00974172 	0 -0.00988207 	0.010031 	0 -0.00970877 	0.010257 	0 -0.00950715 	0.010501 	0 -0.00931826 	0.0107581 	0 -0.00912832 	0.0110009 	-9.10872e-24 -0.00894023 	0.0112351 	-2.515e-23 -0.00871822 	0.0115455 	-4.53381e-23 -0.00850475 	0.0118061 	-4.84186e-23 -0.00830956 	0.0120874 	-5.1995e-23 -0.00813654 	0.012375 	-7.04977e-23 -0.00800574 	0.0125968 	-1.76585e-22 -0.00790479 	0.0127986 	-2.6723e-22 -0.00743693 	0.0133457 	-4.23614e-22 -0.00702545 	0.0139409 	-5.52763e-22 -0.00673705 	0.0143681 	-3.79721e-22 -0.00648007 	0.0148396 	-2.09175e-22 -0.00636893 	0.0153918 	-2.72295e-23 -0.00629015 	0.0155629 	4.36558e-23 -0.00622555 	0.0157006 	7.04305e-23 -0.00617307 	0.0158093 	5.90902e-23 -0.00612188 	0.0159201 	4.79853e-23 -0.00606313 	0.0160527 	3.51913e-23 -0.00587591 	0.016459 	4.83181e-23 -0.00570629 	0.0168951 	6.20392e-23 -0.00555331 	0.0173589 	7.6316e-23 -0.00549109 	0.0177436 	9.15495e-23 -0.00558434 	0.0179202 	1.0703e-22 -0.00509847 	0.0184642 	6.8549e-23 -0.00466636 	0.0190918 	4.91533e-23 -0.00457967 	0.0197946 	2.28599e-22 -0.00477638 	0.0200994 	4.43054e-22 -0.00495371 	0.0203691 	6.41568e-22 -0.00445591 	0.0211191 	3.01669e-22 -0.00402294 	0.0218926 	0 -0.00393726 	0.0221594 	0 -0.00408049 	0.0224865 	3.30286e-25 -0.00431912 	0.0228071 	7.99634e-25 -0.00381324 	0.023782 	9.47704e-26 -0.00367387 	0.0241801 	0 -0.0035946 	0.0245036 	0 -0.00351959 	0.0248471 	0 -0.00368825 	0.0251973 	-1.53256e-22 -0.00341353 	0.0258685 	0 -0.00335336 	0.0261396 	0 -0.00329562 	0.0264235 	0 -0.00324025 	0.02672 	0 -0.00315318 	0.0272265 	0 -0.00314454 	0.0272838 	0 -0.00313596 	0.0273416 	0 -0.00312745 	0.0273996 	0 -0.003119 	0.0274581 	0 -0.00312869 	0.0274417 	0 -0.00303063 	0.0278358 	0 -0.00295883 	0.0282482 	0 -0.00289078 	0.0286834 	0 -0.00282631 	0.0291403 	0 -0.00291596 	0.0289328 	0 -0.00266836 	0.029494 	0 -0.00260046 	0.029964 	0 -0.00253602 	0.0304574 	0 -0.0024749 	0.0309733 	0 -0.00269314 	0.0301478 	0 -0.00235672 	0.0309335 	0 -0.00225313 	0.0315009 	0 -0.00219206 	0.032048 	0 -0.00223174 	0.0320976 	0 -0.00246647 	0.031094 	0 -0.00212824 	0.0320295 	0 -0.00192198 	0.0328366 	0 -0.00186489 	0.0334317 	0 -0.00200444 	0.0329381 	0 -0.00224505 	0.0317947 	0 -0.0019085 	0.0328791 	0 -0.00161753 	0.0339943 	7.07541e-38 -0.00156642 	0.0346317 	5.84362e-37 -0.00179573 	0.0335776 	1.09929e-36 -0.00204138 	0.0322974 	1.60718e-36 -0.00170932 	0.0335269 	1.03461e-36 -0.00138539 	0.0348898 	4.68218e-37 -0.00135608 	0.0353361 	7.31138e-40 -0.00161566 	0.0340241 	1.57698e-39 -0.00186791 	0.03261 	2.41111e-39 -0.0015421 	0.0339801 	1.4823e-39 -0.00122419 	0.0354926 	5.6338e-40 -0.00120601 	0.035721 	-3.27456e-37 -0.00147754 	0.034288 	-8.47518e-37 -0.00174165 	0.0327401 	-1.36061e-36 -0.00142239 	0.0342483 	-7.94347e-37 -0.001111 	0.0359083 	-2.3405e-37 -0.00110411 	0.0359391 	0 -0.00139892 	0.0343837 	0 -0.00168557 	0.0326942 	0 -0.00137165 	0.0343452 	0 -0.00106595 	0.0361599 	0 -0.00106326 	0.035984 	0 -0.00140091 	0.0342933 	0 -0.00172837 	0.0324371 	0 -0.00141766 	0.0342533 	0 -0.00111638 	0.0362508 	0 -0.00109521 	0.0358016 	0 -0.00150626 	0.0339399 	0 -0.00190243 	0.0318588 	0 -0.00159426 	0.0338994 	0 -0.00133968 	0.0356493 	0 -0.00131222 	0.0349185 	0 -0.0017209 	0.0330444 	0 -0.00222358 	0.0306184 	0 -0.00192472 	0.0330188 	0 -0.00173089 	0.0341086 	0 -0.00167512 	0.0330094 	0 -0.00198973 	0.03108 	0 -0.00264102 	0.0280833 	0 -0.00237886 	0.0311364 	0 -0.00221493 	0.0308003 	0 -0.00208633 	0.0290121 	0 -0.002065 	0.0269969 	0 -0.0028956 	0.0230627 	0 -0.00272256 	0.0266343 	0 -0.00241085 	0.0235849 	0 -0.00209914 	0.0205355 	0 -0.00178744 	0.0174862 	0 -0.00213654 	0.0128394 	0 -0.00203951 	0.0146585 	0 -0.00161145 	0.011582 	0 -0.00118339 	0.00850541 	0 -0.000755337 	0.00542884 	0 0 	0 	0
-0.0380032 	0.000128173 	0 -0.0379699 	0.000308863 	-3.39762e-23 -0.0378876 	0.000508847 	-7.75545e-23 -0.0378228 	0.000709355 	-1.21359e-22 -0.0377757 	0.000910383 	-1.6539e-22 -0.0377084 	0.00110474 	-2.10047e-22 -0.0375706 	0.00127314 	-2.67357e-22 -0.0373998 	0.00146093 	-2.8209e-22 -0.0372458 	0.0016501 	-2.95596e-22 -0.0371089 	0.00184065 	-3.0786e-22 -0.0371015 	0.00185261 	-3.08547e-22 -0.0370807 	0.00188892 	-3.11795e-22 -0.0370606 	0.00192528 	-3.15022e-22 -0.0370412 	0.00196169 	-3.18228e-22 -0.0370224 	0.00199815 	-3.21414e-22 -0.0369908 	0.00204112 	-3.26688e-22 -0.0367438 	0.00221995 	-2.77358e-22 -0.0365081 	0.00239993 	-2.28682e-22 -0.0362897 	0.00258225 	-1.79552e-22 -0.0360891 	0.00276694 	-1.29959e-22 -0.0357986 	0.0030094 	-8.69776e-23 -0.0355214 	0.00317678 	-1.82885e-22 -0.0352333 	0.00335269 	-1.78016e-22 -0.0349628 	0.00353182 	-1.74293e-22 -0.0347104 	0.00371425 	-1.71743e-22 -0.0342329 	0.0040323 	6.81002e-23 -0.0339174 	0.00416366 	-1.52864e-23 -0.033597 	0.00434145 	-7.94105e-24 -0.0332948 	0.00452352 	-7.77874e-25 -0.0329143 	0.00476606 	2.35513e-23 -0.0323401 	0.00514126 	8.64466e-23 -0.0319755 	0.00525575 	4.67317e-23 -0.0316293 	0.00538878 	1.70807e-23 -0.0313163 	0.00558102 	2.57504e-23 -0.0307249 	0.0059624 	4.67838e-23 -0.0301626 	0.00636248 	6.76431e-23 -0.0297766 	0.00647766 	3.64832e-23 -0.0294059 	0.00659871 	5.19574e-24 -0.0288167 	0.0068785 	0 -0.0282649 	0.00728283 	1.08836e-23 -0.0277433 	0.00771503 	2.20711e-23 -0.0273638 	0.00784761 	3.00145e-24 -0.0267864 	0.00813556 	0 -0.0262009 	0.0084678 	0 -0.025652 	0.00881919 	0 -0.025207 	0.00914292 	0 -0.0251909 	0.009157 	0 -0.0251749 	0.0091711 	0 -0.025159 	0.00918524 	0 -0.0251402 	0.00920087 	0 -0.0251159 	0.00921954 	0 -0.024526 	0.00956492 	0 -0.0239809 	0.00994039 	0 -0.0234747 	0.0103405 	0 -0.0229156 	0.0108103 	0 -0.022222 	0.011419 	0 -0.0216591 	0.0117698 	0 -0.0211178 	0.0121603 	0 -0.020462 	0.0126432 	0 -0.0198644 	0.0131683 	0 -0.0193016 	0.0137634 	0 -0.0192901 	0.0137786 	0 -0.0192786 	0.0137939 	0 -0.0192669 	0.0138093 	0 -0.0192515 	0.0138249 	0 -0.0192361 	0.0138407 	0 -0.0185484 	0.0143901 	0 -0.0179335 	0.015004 	0 -0.0173606 	0.0156672 	1.97147e-24 -0.0167377 	0.0163449 	1.54366e-23 -0.0160016 	0.0173193 	3.32897e-23 -0.0159335 	0.0174116 	3.3372e-23 -0.0158667 	0.0175051 	3.34641e-23 -0.0157976 	0.0175928 	3.12366e-23 -0.0157245 	0.0176712 	2.55355e-23 -0.0156556 	0.0177474 	2.00873e-23 -0.0149496 	0.0185019 	6.94873e-23 -0.0143161 	0.0193393 	1.22963e-22 -0.0137312 	0.0201138 	1.86818e-23 -0.0132648 	0.0209186 	-2.17696e-22 -0.0129782 	0.0215748 	-4.03534e-22 -0.0128707 	0.0217959 	-5.15103e-22 -0.0127659 	0.0220133 	-6.0181e-22 -0.0126626 	0.0221826 	-5.03458e-22 -0.0125617 	0.0223546 	-4.05939e-22 -0.01245 	0.0225529 	-2.962e-22 -0.0120956 	0.0231457 	-8.26967e-23 -0.0117724 	0.0237775 	1.2627e-22 -0.0114792 	0.0244462 	3.30801e-22 -0.0112877 	0.0249299 	2.63052e-22 -0.0111548 	0.0253197 	1.22721e-22 -0.0105965 	0.026238 	6.5061e-23 -0.0100838 	0.0272274 	6.34318e-24 -0.00974784 	0.0278706 	3.25259e-22 -0.00959823 	0.0285402 	1.07977e-21 -0.00952513 	0.0291797 	1.88039e-21 -0.00918261 	0.0300122 	2.59997e-21 -0.00895354 	0.0305791 	2.31214e-21 -0.00876531 	0.0310792 	1.73092e-21 -0.00858755 	0.0315989 	1.16249e-21 -0.00833418 	0.0324124 	3.2222e-22 -0.00828427 	0.0325928 	2.41879e-22 -0.00823533 	0.0327751 	1.61671e-22 -0.00818734 	0.0329593 	8.15942e-23 -0.00814141 	0.0331432 	2.68467e-24 -0.00818168 	0.0331743 	2.78886e-24 -0.00780522 	0.0339697 	-1.2384e-22 -0.00757954 	0.0348185 	-3.36506e-22 -0.00737245 	0.035707 	-5.53046e-22 -0.00725526 	0.0364871 	-7.73046e-22 -0.00747461 	0.036625 	-9.88506e-22 -0.00689128 	0.0376215 	-6.58449e-22 -0.00643003 	0.0386783 	-6.65601e-23 -0.00626147 	0.0397401 	1.26168e-21 -0.00652066 	0.0399265 	2.29093e-21 -0.00677977 	0.0400513 	3.27509e-21 -0.00618805 	0.041252 	1.87325e-21 -0.00562003 	0.0425424 	4.90366e-22 -0.00549384 	0.043164 	8.21617e-25 -0.00580212 	0.043301 	3.32931e-24 -0.00609494 	0.0434008 	5.76647e-24 -0.00549814 	0.0448063 	2.50943e-24 -0.00502829 	0.0460376 	0 -0.00494131 	0.046393 	0 -0.00510967 	0.0465867 	-3.08221e-21 -0.00542892 	0.0466472 	-8.02617e-21 -0.00483089 	0.0482531 	-1.76255e-21 -0.00460261 	0.0489839 	0 -0.00451892 	0.0493704 	0 -0.00445353 	0.049759 	-3.62207e-25 -0.00479244 	0.0497644 	-9.84623e-24 -0.00426977 	0.0513456 	0 -0.00418814 	0.0517402 	0 -0.00410866 	0.0521529 	0 -0.00403129 	0.0525833 	0 -0.00419715 	0.0527216 	2.30393e-21 -0.00387147 	0.0538595 	2.99685e-37 -0.0037966 	0.0542759 	8.77269e-37 -0.0037236 	0.0547098 	1.45389e-36 -0.00365243 	0.0551609 	2.02957e-36 -0.00365999 	0.0555061 	2.69269e-36 -0.00354754 	0.0559852 	2.92443e-36 -0.00351475 	0.0562021 	2.5301e-36 -0.00348237 	0.0564232 	2.13733e-36 -0.00345039 	0.0566484 	1.7461e-36 -0.00341094 	0.0569349 	1.25943e-36 -0.00338222 	0.0571506 	9.93333e-37 -0.00335382 	0.0573697 	7.27411e-37 -0.00332575 	0.0575922 	4.6166e-37 -0.003298 	0.057818 	1.96077e-37 -0.00331 	0.0577858 	4.27255e-39 -0.00322161 	0.0583541 	-4.30139e-37 -0.00317543 	0.0588093 	-9.39101e-37 -0.00313042 	0.0592776 	-1.44875e-36 -0.00308657 	0.059759 	-1.95906e-36 -0.00316075 	0.059417 	-2.46924e-36 -0.00301233 	0.0603192 	-1.90298e-36 -0.00299623 	0.0608021 	-1.33838e-36 -0.00298079 	0.0612928 	-7.74108e-37 -0.002966 	0.0617912 	-2.10171e-37 -0.0031374 	0.0608547 	0 -0.00292894 	0.0621432 	0 -0.00296238 	0.062673 	0 -0.00299568 	0.063201 	0 -0.00302883 	0.0637274 	0 -0.0033101 	0.062122 	0 -0.00302113 	0.0638711 	0 -0.00313507 	0.0644843 	0 -0.00324736 	0.0650792 	0 -0.00338406 	0.0654016 	0 -0.00377372 	0.0631961 	0 -0.00346555 	0.0652367 	0 -0.00358656 	0.0662779 	0 -0.00382492 	0.0669926 	0 -0.00415177 	0.0665357 	0 -0.00464203 	0.0639201 	0 -0.00434317 	0.0663204 	0 -0.00438427 	0.0681084 	0 -0.00482006 	0.069035 	0 -0.00538908 	0.0672508 	0 -0.00601181 	0.0639267 	0 -0.00574965 	0.0669798 	0 -0.00553814 	0.0701233 	0 -0.00627809 	0.0711905 	0 -0.00708023 	0.0669693 	0 -0.00783028 	0.062366 	0 -0.00767868 	0.0666881 	0 -0.00755646 	0.071251 	0 -0.00790247 	0.0704022 	0 -0.00876281 	0.0640782 	0 -0.00951037 	0.057152 	0 -0.00962823 	0.0640352 	0 -0.00968548 	0.0696124 	0 -0.00895309 	0.0643485 	0 -0.00903003 	0.0556544 	0 -0.0093476 	0.0446932 	0 -0.00999761 	0.0569975 	0 -0.00887009 	0.051808 	0 -0.0073736 	0.0430673 	0 -0.0058771 	0.0343267 	0 -0.00453053 	0.0197497 	0 -0.00495827 	0.0292208 	0 -0.00403081 	0.023755 	0 -0.00310336 	0.0182892 	0 -0.0021759 	0.0128234 	0 0 	0 	0