# vtk DataFile Version 2.0
track0
ASCII
DATASET POLYDATA
POINTS 41203 float
0.05 8.57988e-20 2.57396e-18
0.05 0.00217391 -1.05592e-17
0.05 0.00217391 -1.05592e-17
0.05 0.00217391 -1.05592e-17
0.05 0.00217391 -1.05592e-17
0.05 0.00217391 -1.05592e-17
0.05 0.00217391 -1.38778e-17
0.0493333 0.00217509 -6.66134e-18
0.0486667 0.00217731 -6.45318e-18
0.048 0.0021811 -6.98423e-18
0.0473334 0.00218805 -7.80716e-18
0.0466667 0.00219756 0
0.046 0.00220951 -3.88578e-18
0.0453333 0.0022209 -5.75927e-18
0.0446667 0.0022329 -1.32573e-19
0.0440001 0.00224792 1.09636e-18
0.0433333 0.00226642 -6.93889e-18
0.0426667 0.00228876 5.82867e-18
0.0419999 0.00230914 6.73031e-18
0.0413332 0.00232979 5.43675e-18
0.0406666 0.00235338 5.79529e-18
0.04 0.00238096 0
0.0393333 0.00241369 1.66533e-18
0.0386665 0.00244328 -3.67737e-18
0.0379997 0.00247362 -5.10975e-18
0.0373331 0.00250697 -6.95971e-20
0.0366667 0.00254418 -4.16334e-18
0.036 0.00258774 -4.57967e-18
0.0353331 0.00262722 2.22299e-18
0.0346663 0.00266899 -2.33968e-18
0.0339997 0.00271396 -3.08642e-18
0.0333333 0.00276224 0
0.0326667 0.00281766 -5.82867e-18
0.0319998 0.00287 -8.53442e-18
0.0313331 0.00292577 -5.39755e-18
0.0306668 0.0029851 -6.75536e-18
0.03 0.0030482 -1.38778e-17
0.0294501 0.00310523 -1.15742e-17
0.0289002 0.00316196 -1.89851e-17
0.0283505 0.00322137 -2.10188e-17
0.0278012 0.00328354 -1.90102e-17
0.0273808 0.00333333 -1.7645e-17
0.027238 0.00335084 -1.52263e-17
0.0270952 0.00336856 -1.97463e-17
0.0269524 0.00338648 -1.59396e-17
0.0268096 0.00340461 -1.07451e-17
0.0266667 0.00342299 -2.61438e-17
0.026 0.00351159 -2.3147e-17
0.0253338 0.0036034 -2.56932e-17
0.0246682 0.00370003 -2.78969e-17
0.0240034 0.00380167 -2.40143e-17
0.0233333 0.00390948 -2.45517e-17
0.0226667 0.00403579 -2.82315e-17
0.0219994 0.00415886 -2.42731e-17
0.0213331 0.00428724 -2.68514e-17
0.0206681 0.00442174 -3.2622e-17
0.02 0.00457346 -2.731e-17
0.0193333 0.00475244 -2.40676e-17
0.0186665 0.00493078 -2.60231e-17
0.0179995 0.00510842 -2.47092e-17
0.0173359 0.00529868 -2.83972e-17
0.0166667 0.0055201 -3.19189e-17
0.0160616 0.00574941 -2.34685e-17
0.0154573 0.00598095 -3.28582e-17
0.0148573 0.00622328 -1.93527e-17
0.0142643 0.00648228 -2.26817e-17
0.0138743 0.00666667 -2.31054e-17
0.0137661 0.0067206 -2.57007e-17
0.0136583 0.00677527 -2.6909e-17
0.0135509 0.0068307 -3.22812e-17
0.0134438 0.00688689 -2.79198e-17
0.0133333 0.00694618 -2.26699e-17
0.0126667 0.0073131 -2.81382e-17
0.0120124 0.00770162 -2.32341e-17
0.0113733 0.0081148 -2.04831e-17
0.0107515 0.00855351 -1.93993e-17
0.01 0.00914423 -1.249e-17
0.00980914 0.00931538 -1.3401e-17
0.00961993 0.00948836 -1.70917e-17
0.0094324 0.00966317 -1.80712e-17
0.0092466 0.00983981 -1.02087e-17
0.00908145 0.01 -1.38778e-17
0.0085985 0.0104769 -2.97202e-18
0.00813869 0.0109762 -1.34967e-17
0.00770352 0.0114971 -1.51931e-17
0.00729201 0.0120368 -1.5882e-17
0.00666667 0.012929 -6.93889e-18
0.00661701 0.0130098 -1.11849e-17
0.00656765 0.0130909 -8.49156e-18
0.0065186 0.0131721 -7.18548e-18
0.00646984 0.0132536 -1.21622e-17
0.00642222 0.0133333 -1.38778e-17
0.00602522 0.014 -3.19189e-18
0.00566452 0.014687 -2.60122e-18
0.00533445 0.0153892 -2.05374e-19
0.00503115 0.0161034 -2.65439e-18
0.0047944 0.0166667 8.33351e-18
0.0045163 0.0173333 7.46533e-18
0.00427762 0.0180151 1.02833e-17
0.00406506 0.0187055 1.32818e-17
0.00386331 0.0193991 6.00443e-18
0.00369814 0.02 1.71715e-17
0.00362518 0.0202622 8.18611e-18
0.00355806 0.0205259 1.33386e-17
0.00349283 0.0207902 1.83975e-17
0.00342909 0.0210548 2.31076e-17
0.00333333 0.0214621 1.69631e-17
0.00324858 0.0218363 1.51244e-17
0.00316639 0.0222111 1.91509e-17
0.00308667 0.0225865 1.90181e-17
0.00300934 0.0229624 2.30527e-17
0.00293537 0.0233333 3.60822e-17
0.00279805 0.024 4.1217e-17
0.00267606 0.0246696 4.39182e-17
0.00256177 0.0253406 3.80096e-17
0.00245455 0.0260128 4.63771e-17
0.00235173 0.0266667 5.41234e-17
0.00223574 0.0273333 5.78704e-17
0.00213857 0.028003 5.78085e-17
0.00205686 0.0286747 6.2059e-17
0.00198084 0.0293471 6.05391e-17
0.00189589 0.03 6.10623e-17
0.00179645 0.0306667 5.9952e-17
0.00171703 0.031336 6.40415e-17
0.00165661 0.0320073 6.19598e-17
0.00159828 0.0326789 6.12462e-17
0.00152781 0.0333333 5.98477e-17
0.00144172 0.034 6.6259e-17
0.00137703 0.0346691 6.46502e-17
0.00133206 0.0353398 6.30983e-17
0.00128803 0.0360105 6.28085e-17
0.00122998 0.0366667 6.80345e-17
0.00115502 0.0373333 6.57307e-17
0.00110302 0.0380022 7.30721e-17
0.00106511 0.038672 6.95189e-17
0.0010272 0.0393418 6.68809e-17
0.000980255 0.04 6.08176e-17
0.000914799 0.0406667 6.92533e-17
0.00087423 0.0413353 7.88304e-17
0.000841438 0.0420044 7.64593e-17
0.000808646 0.0426734 7.48408e-17
0.000771979 0.0433333 7.43483e-17
0.000714803 0.044 7.23619e-17
0.000684805 0.0446684 7.39414e-17
0.000656461 0.045337 7.19503e-17
0.000628117 0.0460055 7.74289e-17
0.000600083 0.0466667 8.22674e-17
0.000550181 0.0473333 7.26187e-17
0.000525724 0.0480014 7.35118e-17
0.000501267 0.0486695 8.2013e-17
0.000476811 0.0493376 7.81249e-17
0.000452561 0.05 8.39008e-17
0.000409031 0.0506667 8.57774e-17
0.000387936 0.0513344 9.31696e-17
0.000366842 0.0520022 8.8953e-17
0.000345747 0.0526699 8.7841e-17
0.00032479 0.0533333 8.55014e-17
0.000286726 0.054 8.77158e-17
0.000268433 0.0546675 8.64293e-17
0.000250141 0.055335 8.86069e-17
0.000231849 0.0560025 8.923e-17
0.000213648 0.0566667 8.42987e-17
0.000180032 0.0573333 8.78935e-17
0.000163869 0.0580007 8.1052e-17
0.000147706 0.058668 8.34033e-17
0.000131542 0.0593353 8.09042e-17
0.000115442 0.06 8.585e-17
9.23536e-05 0.0605059 9.15882e-17
8.10256e-05 0.0610122 8.48174e-17
6.96975e-05 0.0615185 8.29039e-17
5.83695e-05 0.0620248 8.89153e-17
2.90916e-05 0.0633333 9.84838e-17
2.32733e-05 0.0634675 1.03141e-16
2.02613e-05 0.0636018 1.05538e-16
1.72493e-05 0.063736 1.12705e-16
1.42374e-05 0.0638703 1.20913e-16
0 0.0645049 1.22688e-16
0.05 0.00434783 5.94331e-18
0.0493333 0.00434883 4.55386e-18
0.0486667 0.00435289 3.83764e-19
0.048 0.00435932 -4.85792e-19
0.0473334 0.00436743 3.73425e-18
0.0466667 0.00437845 1.72898e-18
0.046 0.00439348 -6.62273e-18
0.0453334 0.00441017 -1.0994e-18
0.0446668 0.00442848 -2.91353e-18
0.0440003 0.00444843 -7.66489e-18
0.0433333 0.00447227 -9.0665e-18
0.0426667 0.00450134 -5.46207e-19
0.042 0.00453084 1.03813e-18
0.0413334 0.00456105 4.37139e-18
0.0406669 0.00459289 -1.01673e-18
0.04 0.00463033 8.59535e-18
0.0393333 0.00467428 2.97104e-18
0.0386666 0.00471768 6.02127e-18
0.0379999 0.00476053 2.75857e-18
0.0373333 0.00480566 4.1173e-18
0.0366667 0.00485836 1.02623e-17
0.036 0.00491897 6.96795e-18
0.0353332 0.00497829 3.53456e-18
0.0346663 0.00503632 1.88992e-18
0.0339998 0.00509804 -1.27517e-19
0.0333333 0.00516876 6.93889e-18
0.0326667 0.00524891 5.82867e-18
0.0319998 0.00532735 6.10673e-18
0.0313327 0.00540406 1.9065e-18
0.0306664 0.0054868 3.6996e-18
0.03 0.00557967 0
0.0293333 0.00568368 -4.16334e-19
0.0286664 0.00578594 -4.71799e-18
0.028 0.00589159 -6.00924e-18
0.0273348 0.00600454 -1.35859e-17
0.0266667 0.006126 -1.66533e-17
0.0261294 0.00623413 -8.8198e-18
0.0255922 0.00634237 -1.20885e-17
0.0250562 0.00645603 -1.56627e-17
0.0245213 0.00657536 -9.27587e-18
0.0241324 0.00666667 -2.07596e-17
0.0239726 0.0067056 -1.0779e-17
0.0238129 0.00674511 -1.46764e-17
0.0236534 0.00678521 -7.47189e-18
0.023494 0.0068259 -1.13698e-17
0.0233333 0.00686758 -1.28246e-17
0.0226667 0.0070454 -1.1733e-17
0.0220025 0.00723236 -1.34321e-17
0.0213415 0.00743014 -2.05882e-17
0.020684 0.00763923 -1.72135e-17
0.02 0.00787349 -1.50265e-17
0.0193333 0.00812707 -1.10971e-17
0.0186708 0.00839117 -1.12342e-17
0.0180127 0.0086664 -9.08651e-18
0.0173621 0.00895876 -1.14499e-17
0.0166667 0.00929991 -6.93889e-18
0.0164066 0.00943993 -5.98423e-18
0.0161476 0.00958194 -6.07448e-18
0.0158899 0.00972621 -4.25747e-18
0.0156338 0.00987345 -6.60662e-18
0.0154196 0.01 1.38778e-18
0.0150024 0.0102522 -3.1956e-18
0.0145912 0.0105143 -8.68672e-18
0.0141865 0.0107862 -1.39109e-17
0.0137887 0.0110681 -1.14696e-17
0.0133333 0.0114108 1.64044e-18
0.0128575 0.0117953 -4.95577e-18
0.0123919 0.0121922 -8.73848e-19
0.0119371 0.0126014 -1.1443e-18
0.0114939 0.013023 -3.58001e-18
0.0111856 0.0133333 2.72494e-18
0.0109485 0.0135817 1.62484e-18
0.0107168 0.0138351 -3.69265e-18
0.0104905 0.0140934 -2.67357e-18
0.0102697 0.0143564 -8.27057e-19
0.01 0.0146909 -1.07514e-18
0.0096973 0.0150861 -7.44299e-18
0.00940376 0.0154881 -9.92935e-19
0.00911934 0.0158966 -6.15081e-19
0.00884358 0.016311 4.70139e-18
0.00861502 0.0166667 0
0.00822535 0.0172911 6.14873e-18
0.00786346 0.017932 -4.07446e-18
0.00752811 0.0185873 -1.7943e-18
0.00721134 0.0192517 -8.11435e-18
0.00687871 0.02 -1.75115e-17
0.0068363 0.020102 -1.62296e-17
0.00679455 0.0202042 -2.03426e-17
0.00675334 0.0203067 -2.40931e-17
0.00671257 0.0204094 -3.20075e-17
0.00666667 0.0205263 -3.47675e-17
0.00644937 0.0210877 -2.64262e-17
0.00624347 0.0216534 -2.3029e-17
0.00604835 0.0222229 -1.90708e-17
0.00586334 0.0227958 -1.60094e-17
0.0056957 0.0233333 -1.80411e-17
0.00548642 0.024 -1.84575e-17
0.00529956 0.0246733 -1.64562e-17
0.00513402 0.0253522 -1.80908e-17
0.00497635 0.0260329 -1.63604e-17
0.00482567 0.0266667 -1.63949e-17
0.00466359 0.0273333 -1.64529e-17
0.00452247 0.0280047 -1.36297e-17
0.00439807 0.0286795 -1.5495e-17
0.00427785 0.0293549 -1.12974e-17
0.00416198 0.03 -1.73394e-17
0.00403706 0.0306667 -1.22742e-17
0.00393131 0.0313366 -1.26477e-17
0.00382998 0.0320073 -1.34042e-17
0.00373227 0.0326785 -1.20934e-17
0.00364041 0.0333333 -8.83805e-18
0.00357899 0.0337627 1.34673e-18
0.00352272 0.0341927 2.50355e-18
0.00346784 0.0346229 -6.40303e-18
0.00341431 0.0350533 -1.15814e-17
0.00333333 0.0357212 -4.16334e-18
0.00331129 0.0359103 -9.75116e-18
0.00328948 0.0360994 -2.84859e-18
0.0032679 0.0362885 -4.2723e-18
0.00324656 0.0364777 -5.69563e-18
0.00322547 0.0366667 -6.93889e-18
0.0031505 0.0373333 -5.27356e-18
0.00307964 0.0380004 -1.39526e-19
0.00301166 0.0386679 8.52089e-19
0.00294644 0.0393356 7.43469e-19
0.00288419 0.04 0
0.00281873 0.0406667 5.82867e-18
0.00276057 0.041334 3.67649e-18
[...]
POINT_DATA 41203
 FIELD attributes 1
U 3 41203 float
-6.38872e-19 	-1.65233e-21 	0
-0.0150809 	2.67075e-05 	0 -0.0150809 	2.67075e-05 	0 -0.0150809 	2.67075e-05 	0 -0.0150809 	2.67075e-05 	0 -0.0150809 	2.67075e-05 	0 -0.0150809 	2.67075e-05 	0 -0.0154131 	5.12606e-05 	0 -0.0156493 	8.88571e-05 	-4.1646e-25 -0.0156094 	0.000162714 	-1.99119e-24 -0.015357 	0.000219224 	-3.57329e-24 -0.015034 	0.000269388 	-5.16161e-24 -0.0153575 	0.000262393 	2.01989e-22 -0.0155393 	0.000279761 	3.40364e-22 -0.0154395 	0.000347832 	3.36213e-22 -0.0152066 	0.000421914 	2.00999e-22 -0.0149122 	0.00049973 	-6.63646e-24 -0.0152132 	0.000465082 	4.58752e-23 -0.0153042 	0.000473884 	7.40786e-23 -0.0151556 	0.000536417 	7.2538e-23 -0.0149522 	0.000618613 	4.60433e-23 -0.0146971 	0.000721581 	-6.45922e-24 -0.0149651 	0.00066411 	-4.73944e-24 -0.0149358 	0.000679678 	-2.07963e-23 -0.0147522 	0.000737817 	-4.70308e-23 -0.0145694 	0.000813522 	-7.38222e-23 -0.0143618 	0.000938472 	-1.02045e-22 -0.0145889 	0.000863622 	-7.70529e-23 -0.0144201 	0.000903356 	-7.47322e-23 -0.0142159 	0.00095896 	-7.54609e-23 -0.014028 	0.00101632 	-7.64348e-23 -0.0138731 	0.0011534 	-1.00569e-22 -0.0139719 	0.00109657 	-1.8205e-22 -0.0137459 	0.00114982 	-1.46609e-22 -0.0135354 	0.00120516 	-1.106e-22 -0.013341 	0.00126268 	-7.40009e-23 -0.0132049 	0.00136939 	1.05211e-23 -0.0131593 	0.00135759 	-4.56053e-23 -0.012976 	0.0014024 	-3.2477e-23 -0.0128031 	0.00144895 	-1.86897e-23 -0.0126411 	0.00149729 	-4.21996e-24 -0.0125257 	0.00153572 	7.40061e-24 -0.0124892 	0.00154946 	1.1572e-23 -0.0124536 	0.00156334 	1.57949e-23 -0.0124187 	0.00157735 	2.00697e-23 -0.0123847 	0.00159151 	2.43968e-23 -0.0123145 	0.00163664 	8.98521e-24 -0.0120783 	0.00166445 	6.68218e-24 -0.0118767 	0.00172429 	7.59754e-24 -0.011691 	0.00178739 	8.48267e-24 -0.0115219 	0.00185388 	9.33626e-24 -0.0111667 	0.00211564 	5.05902e-23 -0.0108205 	0.00199574 	3.74623e-22 -0.0106337 	0.00204893 	4.59717e-22 -0.0104729 	0.00211809 	5.30818e-22 -0.0102112 	0.00231891 	4.3222e-22 -0.00987936 	0.00265228 	1.78467e-22 -0.00957584 	0.00256099 	4.40894e-22 -0.00927071 	0.00246902 	7.03304e-22 -0.00896095 	0.00256947 	7.17354e-22 -0.00869491 	0.00287649 	4.86859e-22 -0.00847543 	0.00321196 	2.57536e-22 -0.00825414 	0.00316288 	4.59411e-22 -0.00797441 	0.00322081 	4.9474e-22 -0.00767845 	0.00335366 	4.28615e-22 -0.00741589 	0.0035059 	3.59154e-22 -0.00726476 	0.00362112 	3.10509e-22 -0.00721773 	0.00366027 	2.96836e-22 -0.00717214 	0.00370036 	2.83021e-22 -0.007128 	0.0037414 	2.69062e-22 -0.00707053 	0.00379414 	2.67487e-22 -0.00700535 	0.00385562 	2.72048e-22 -0.00660545 	0.00392225 	1.80727e-22 -0.00634055 	0.00409958 	9.77482e-23 -0.00610522 	0.00430775 	1.91085e-23 -0.00583749 	0.00458825 	2.59421e-23 -0.005561 	0.00498673 	3.19461e-23 -0.00549973 	0.00502807 	1.84319e-23 -0.00544158 	0.00507231 	4.91121e-24 -0.00538559 	0.00512042 	2.97051e-23 -0.00533224 	0.00517204 	7.63589e-23 -0.00528728 	0.00522105 	1.18236e-22 -0.00498307 	0.00541066 	1.19015e-22 -0.0047115 	0.00563944 	1.13936e-22 -0.00447961 	0.00587584 	1.02956e-22 -0.00428569 	0.0061142 	8.65523e-23 -0.00402062 	0.00654818 	5.2379e-23 -0.00400409 	0.00657597 	8.67155e-23 -0.00398794 	0.00660427 	1.20757e-22 -0.00397217 	0.00663307 	1.54505e-22 -0.0039724 	0.00665427 	8.25156e-23 -0.00397448 	0.00667431 	3.88469e-25 -0.00359347 	0.00684399 	-6.64638e-22 -0.00338354 	0.00719835 	-1.09928e-21 -0.00323205 	0.00761039 	-1.47378e-21 -0.00332146 	0.0079029 	-1.16809e-21 -0.00339478 	0.00813792 	-9.26618e-22 -0.00297354 	0.0084939 	-6.09637e-22 -0.00271046 	0.0088031 	-3.57202e-22 -0.00261866 	0.00900281 	-1.93189e-22 -0.0025364 	0.00922785 	-2.43528e-23 -0.00266727 	0.00958513 	1.62332e-23 -0.00250134 	0.0098288 	1.31942e-24 -0.002453 	0.00993628 	0 -0.00241745 	0.0100348 	0 -0.00238344 	0.0101382 	0 -0.00233349 	0.0103043 	0 -0.00229191 	0.0104521 	0 -0.00225296 	0.0106085 	0 -0.00221653 	0.0107732 	0 -0.00218255 	0.010946 	0 -0.00224416 	0.0108947 	0 -0.00200234 	0.010992 	0 -0.00193047 	0.0113334 	0 -0.00186756 	0.0117084 	0 -0.00187599 	0.0119292 	0 -0.00203679 	0.0117073 	0 -0.00172047 	0.0118562 	0 -0.00147755 	0.012147 	0 -0.00143134 	0.0126601 	0 -0.00161898 	0.0124422 	0 -0.0018059 	0.0121078 	0 -0.00146964 	0.0123852 	0 -0.00115147 	0.012794 	0 -0.00112043 	0.012899 	0 -0.00135063 	0.0125434 	0 -0.00156107 	0.0120891 	0 -0.00120945 	0.0125105 	0 -0.000878746 	0.0131053 	0 -0.000836558 	0.0127432 	0 -0.00108813 	0.0122993 	0 -0.00131817 	0.0117225 	0 -0.000956117 	0.0122999 	0 -0.000716008 	0.01265 	0 -0.000691398 	0.0122152 	0 -0.000833413 	0.0116853 	0 -0.00107898 	0.0109894 	0 -0.00071171 	0.0117304 	0 -0.000575139 	0.0117348 	0 -0.000553566 	0.0112946 	0 -0.000598989 	0.0107799 	0 -0.000855544 	0.00997549 	0 -0.000488397 	0.0108829 	0 -0.000446887 	0.0105401 	0 -0.00042839 	0.0101038 	0 -0.000409894 	0.00966758 	0 -0.000657297 	0.00878116 	0 -0.000349162 	0.00953806 	0 -0.000333641 	0.00911407 	0 -0.00031812 	0.00869008 	0 -0.000302599 	0.00826609 	0 -0.000482143 	0.00738402 	0 -0.000248422 	0.00786382 	0 -0.00023561 	0.00745826 	0 -0.000222799 	0.00705271 	0 -0.000209987 	0.00664715 	0 -0.000332832 	0.00582932 	2.88264e-37 -0.000165305 	0.00603208 	0 -0.000154759 	0.00564725 	0 -0.000144213 	0.00526242 	0 -0.000133667 	0.00487759 	0 -0.000210255 	0.00416984 	2.91091e-40 -9.92908e-05 	0.0040993 	0 -9.03764e-05 	0.00373126 	0 -8.14621e-05 	0.00336322 	0 -7.25477e-05 	0.00299519 	0 -0.000110795 	0.00242766 	-1.02302e-37 -5.05125e-05 	0.00225761 	0 -4.43167e-05 	0.00198069 	0 -3.81208e-05 	0.00170378 	0 -3.1925e-05 	0.00142686 	0 -2.84027e-05 	0.000654956 	0 -1.36428e-05 	0.000608134 	0 -1.18772e-05 	0.00052943 	0 -1.01115e-05 	0.000450727 	0 -8.34592e-06 	0.000372023 	0 0 	0 	0
-0.0293268 	4.43114e-05 	0 -0.029546 	0.000179818 	0 -0.0296535 	0.000286167 	-7.36966e-25 -0.0296316 	0.000360316 	-2.28764e-24 -0.0294451 	0.000486535 	-1.8859e-23 -0.0291294 	0.000656918 	-4.81209e-23 -0.0292603 	0.000732357 	-2.38007e-22 -0.0293187 	0.000805646 	-3.55269e-22 -0.029261 	0.000875444 	-3.61552e-22 -0.0289828 	0.00103626 	-2.45609e-22 -0.0286042 	0.00124712 	-6.44803e-23 -0.0286481 	0.001268 	-8.36579e-23 -0.028665 	0.0012987 	-9.92047e-23 -0.0285773 	0.00136518 	-1.01324e-22 -0.0281851 	0.00158262 	-6.35225e-23 -0.0277675 	0.00183052 	-1.85993e-23 -0.0277322 	0.00180527 	-2.17725e-23 -0.0276939 	0.00177967 	-2.49418e-23 -0.0275404 	0.00186468 	-4.57505e-23 -0.0270699 	0.00214015 	-5.94202e-23 -0.0266382 	0.00242155 	-7.27887e-23 -0.026536 	0.00236099 	-2.46053e-22 -0.0264272 	0.00229942 	-4.19399e-22 -0.0261249 	0.00241924 	-4.05926e-22 -0.0256609 	0.00272276 	-2.06011e-22 -0.0252387 	0.00303428 	-5.57046e-24 -0.0250846 	0.00295091 	1.49114e-22 -0.0249225 	0.00286597 	3.03737e-22 -0.0244098 	0.00303076 	3.16421e-22 -0.0239703 	0.00334061 	2.32412e-22 -0.0235789 	0.00367884 	1.36018e-22 -0.0233891 	0.00358604 	2.71117e-22 -0.0230049 	0.00364706 	3.06158e-22 -0.0225033 	0.00382121 	2.70797e-22 -0.0220301 	0.0040049 	2.34259e-22 -0.0216859 	0.004365 	9.05006e-23 -0.0214808 	0.00432816 	8.28812e-23 -0.0210866 	0.0044708 	1.13208e-22 -0.0207108 	0.00462071 	1.44037e-22 -0.0203544 	0.00477822 	1.75391e-22 -0.0201093 	0.00489885 	1.98646e-22 -0.0200131 	0.00495262 	2.00531e-22 -0.019919 	0.00500721 	2.02354e-22 -0.0198269 	0.00506262 	2.04112e-22 -0.0197368 	0.00511886 	2.05805e-22 -0.0195825 	0.00522333 	2.13884e-22 -0.0190832 	0.00537191 	1.93848e-22 -0.0186655 	0.00558473 	1.98093e-22 -0.0182793 	0.00581267 	1.99989e-22 -0.0178493 	0.00611367 	2.19124e-22 -0.0172794 	0.00657247 	2.77888e-22 -0.0167954 	0.00669471 	1.57632e-22 -0.0163416 	0.00683524 	3.65368e-23 -0.0157882 	0.00709457 	0 -0.0153396 	0.00752447 	3.94695e-23 -0.0149137 	0.00802923 	7.99169e-23 -0.0147714 	0.00809971 	3.42456e-23 -0.0146205 	0.00818353 	0 -0.0144348 	0.00830075 	0 -0.0142565 	0.00842326 	0 -0.0141127 	0.00853098 	0 -0.0137878 	0.00878735 	0 -0.0134861 	0.00906288 	0 -0.0132085 	0.00935787 	0 -0.0128705 	0.00968655 	0 -0.0124978 	0.0100991 	0 -0.0121508 	0.0103591 	0 -0.011837 	0.0106491 	0 -0.011509 	0.0109494 	0 -0.011202 	0.0112751 	0 -0.0110083 	0.0115304 	0 -0.0107878 	0.0117985 	0 -0.0105813 	0.012081 	0 -0.0103721 	0.012349 	-1.73594e-23 -0.0101634 	0.0126078 	-4.85139e-23 -0.00991889 	0.0129482 	-8.74239e-23 -0.00967083 	0.0132442 	-9.33771e-23 -0.00944477 	0.0135653 	-1.00362e-22 -0.00924539 	0.013893 	-1.2984e-22 -0.00909281 	0.0141507 	-2.72888e-22 -0.00897633 	0.0143844 	-3.94614e-22 -0.00846109 	0.0149854 	-6.12013e-22 -0.00800591 	0.015642 	-7.95511e-22 -0.00768207 	0.0161127 	-5.12945e-22 -0.00739309 	0.0166324 	-2.35174e-22 -0.0072017 	0.0173197 	1.26113e-22 -0.00713251 	0.0174716 	2.22095e-22 -0.00707483 	0.0175938 	2.5133e-22 -0.00702722 	0.0176899 	2.21706e-22 -0.00698052 	0.0177874 	1.92418e-22 -0.00692843 	0.0178999 	1.59482e-22 -0.00669204 	0.0183856 	1.47436e-22 -0.00647949 	0.0189114 	1.36737e-22 -0.00628942 	0.0194746 	1.27307e-22 -0.00621737 	0.0199376 	1.30887e-22 -0.00632789 	0.0201571 	1.55189e-22 -0.00576801 	0.0207832 	9.76459e-23 -0.00524176 	0.0214963 	4.11404e-23 -0.0051544 	0.0222528 	1.76097e-22 -0.00537495 	0.0226091 	3.65551e-22 -0.00557334 	0.0229244 	5.40542e-22 -0.00500075 	0.023792 	2.40361e-22 -0.00453951 	0.0246218 	0 -0.00443707 	0.0249293 	0 -0.00454356 	0.0252943 	2.96017e-25 -0.00480917 	0.0256658 	8.19145e-25 -0.00422929 	0.0267936 	3.66347e-26 -0.00410626 	0.0271782 	0 -0.00401059 	0.0275494 	0 -0.00392003 	0.0279447 	0 -0.0040542 	0.0283423 	-1.24596e-22 -0.00379275 	0.0289863 	0 -0.00373052 	0.0292432 	0 -0.00367036 	0.0295112 	0 -0.00361223 	0.02979 	0 -0.00352512 	0.0302389 	0 -0.00350222 	0.0303712 	0 -0.00347966 	0.0305054 	0 -0.00345745 	0.0306415 	0 -0.00343558 	0.0307795 	0 -0.00345673 	0.0307406 	0 -0.00331317 	0.0311934 	0 -0.00322459 	0.0316572 	0 -0.0031404 	0.0321481 	0 -0.00306042 	0.0326651 	0 -0.00317467 	0.0323338 	0 -0.00287588 	0.0329986 	0 -0.0027907 	0.0335177 	0 -0.00270951 	0.0340649 	0 -0.00263989 	0.0346001 	0 -0.00288279 	0.0336128 	0 -0.00251564 	0.0345202 	0 -0.0023773 	0.0351637 	0 -0.00229869 	0.0357571 	0 -0.00234287 	0.0357307 	0 -0.00258918 	0.0345902 	0 -0.00222738 	0.0356619 	0 -0.00199183 	0.0365773 	0 -0.00191634 	0.0372058 	0 -0.00205928 	0.0365973 	0 -0.00230557 	0.0353098 	0 -0.00195385 	0.0365392 	0 -0.00164592 	0.037789 	7.57758e-38 -0.00157571 	0.0384411 	6.42366e-37 -0.00180131 	0.037256 	1.21054e-36 -0.00204578 	0.0358304 	1.77184e-36 -0.00170795 	0.0372071 	1.14636e-36 -0.00137757 	0.0387186 	5.27151e-37 -0.00133065 	0.0391852 	7.7884e-40 -0.00158037 	0.0377282 	1.65724e-39 -0.00182398 	0.0361736 	2.52523e-39 -0.00150249 	0.0376858 	1.57111e-39 -0.00118778 	0.0393361 	6.26124e-40 -0.00115772 	0.0396051 	-3.9043e-37 -0.00141139 	0.0380336 	-9.6443e-37 -0.00165926 	0.0363566 	-1.53208e-36 -0.00135486 	0.0379942 	-9.1433e-37 -0.00105673 	0.0397723 	-3.02229e-37 -0.0010455 	0.0398775 	0 -0.00131488 	0.038195 	0 -0.00157825 	0.0363937 	0 -0.00128994 	0.0381539 	0 -0.00100775 	0.0400582 	0 -0.00101227 	0.0400054 	0 -0.00131802 	0.0382028 	0 -0.00161652 	0.0362572 	0 -0.00134238 	0.0381549 	0 -0.00107486 	0.040204 	0 -0.00108053 	0.0399476 	0 -0.00145506 	0.0379898 	0 -0.00181896 	0.0358439 	0 -0.00155869 	0.0379313 	0 -0.00130702 	0.0401809 	0 -0.00128574 	0.0395265 	0 -0.00175735 	0.0373705 	0 -0.00222762 	0.034901 	0 -0.00198861 	0.0373071 	0 -0.00179966 	0.0390815 	0 -0.00175278 	0.0380636 	0 -0.00220238 	0.0358219 	0 -0.00282334 	0.0327833 	0 -0.00263337 	0.0357967 	0 -0.0024867 	0.0364761 	0 -0.00237014 	0.0347664 	0 -0.00258228 	0.032331 	0 -0.00337721 	0.0282833 	0 -0.0033082 	0.0325205 	0 -0.00303557 	0.0303291 	0 -0.00273681 	0.0273441 	0 -0.00243804 	0.0243591 	0 -0.0030965 	0.0190195 	0 -0.00299684 	0.0215827 	0 -0.0023556 	0.0169645 	0 -0.00171435 	0.0123464 	0 -0.00107311 	0.00772831 	0 -2.35365e-05 	0.000113029 	0 -2.47974e-05 	0.000143981 	0 -1.9636e-05 	0.000114012 	0 -1.44746e-05 	8.40438e-05 	0 -9.31325e-06 	5.40753e-05 	0 0 	0 	0
-0.0426183 	5.15113e-05 	0 -0.0425869 	0.000260861 	-2.13727e-23 -0.0425047 	0.000491161 	-4.88067e-23 -0.0424429 	0.000721974 	-7.63874e-23 -0.0424016 	0.000953294 	-1.04115e-22 -0.0423368 	0.00117537 	-1.32251e-22 -0.0421902 	0.00136874 	-1.63643e-22 -0.0420062 	0.00158489 	-1.65267e-22 -0.0418417 	0.00180255 	-1.66062e-22 -0.041697 	0.00202172 	-1.66017e-22 -0.0416506 	0.00210387 	-1.65685e-22 -0.041637 	0.00213191 	-1.66141e-22 -0.0416238 	0.00215997 	-1.66591e-22 -0.0416109 	0.00218806 	-1.67036e-22 -0.0415984 	0.00221618 	-1.67475e-22 -0.0415763 	0.00224914 	-1.688e-22 -0.0413016 	0.00245427 	-1.39117e-22 -0.0410423 	0.0026609 	-1.09446e-22 -0.0408032 	0.00287017 	-7.95653e-23 -0.0405846 	0.00308212 	-4.94714e-23 -0.0402738 	0.00335557 	-2.47675e-23 -0.0399631 	0.0035494 	-1.8993e-23 -0.0396432 	0.00375059 	-1.07763e-23 -0.0393436 	0.00395546 	-2.45889e-24 -0.0390648 	0.00416407 	5.96126e-24 -0.0385452 	0.00452145 	2.15283e-23 -0.0381879 	0.00467585 	1.91867e-22 -0.0378306 	0.00487829 	2.32272e-22 -0.0374942 	0.00508559 	2.7384e-22 -0.0370796 	0.00535686 	2.52669e-22 -0.036444 	0.00578244 	7.51257e-23 -0.0360294 	0.00591394 	4.74004e-23 -0.0356383 	0.00606848 	2.90193e-23 -0.0352894 	0.00628642 	4.07529e-23 -0.0346416 	0.00671434 	7.23774e-23 -0.0340199 	0.00716792 	1.0421e-22 -0.0335801 	0.0072978 	5.66852e-23 -0.0331579 	0.00743437 	8.9653e-24 -0.0325033 	0.00774709 	0 -0.0318957 	0.00820846 	1.61589e-23 -0.0313211 	0.00869813 	3.21821e-23 -0.0308888 	0.0088456 	4.88879e-24 -0.0302471 	0.00916607 	0 -0.0295919 	0.00954106 	0 -0.0289787 	0.00993771 	0 -0.0284315 	0.0103407 	0 -0.0284232 	0.0103482 	0 -0.028415 	0.0103557 	0 -0.0284067 	0.0103632 	0 -0.028397 	0.0103714 	0 -0.0283843 	0.0103813 	0 -0.0277289 	0.0107735 	0 -0.0271201 	0.0111958 	0 -0.0265557 	0.011646 	0 -0.0259384 	0.0121728 	0 -0.0251639 	0.0128605 	0 -0.0245326 	0.0132505 	0 -0.0239322 	0.0136831 	0 -0.023196 	0.0142253 	0 -0.0225262 	0.0148151 	0 -0.0218395 	0.0155448 	0 -0.0218385 	0.0155461 	0 -0.0218376 	0.0155473 	0 -0.0218367 	0.0155486 	0 -0.0218354 	0.0155499 	0 -0.0218342 	0.0155511 	0 -0.0210762 	0.0161728 	0 -0.0203867 	0.0168582 	0 -0.0197519 	0.0176021 	1.48148e-25 -0.0190459 	0.0183632 	1.6832e-24 -0.0182178 	0.0194519 	3.70666e-24 -0.0181275 	0.0195726 	3.71581e-24 -0.0180392 	0.0196952 	3.72651e-24 -0.0179474 	0.0198104 	-1.91474e-24 -0.0178502 	0.0199145 	-1.54339e-23 -0.0177596 	0.020015 	-2.82705e-23 -0.016986 	0.0208476 	-1.8442e-23 -0.0162913 	0.0217698 	-5.09665e-24 -0.0156423 	0.0226248 	-4.18205e-23 -0.0150791 	0.0234902 	-1.20187e-22 -0.0146901 	0.02436 	-2.14998e-22 -0.0145949 	0.0245586 	-2.84089e-22 -0.0145015 	0.0247534 	-3.37485e-22 -0.0144072 	0.0249045 	-2.71375e-22 -0.0143147 	0.0250575 	-2.0572e-22 -0.0142143 	0.025229 	-1.33616e-22 -0.0137712 	0.0259386 	2.12075e-22 -0.0133697 	0.0267002 	5.46376e-22 -0.013008 	0.027511 	8.69625e-22 -0.0127711 	0.0280941 	6.02814e-22 -0.0126063 	0.028567 	2.15868e-22 -0.0119663 	0.0296264 	-1.07665e-22 -0.0113798 	0.0307685 	-4.35603e-22 -0.0110075 	0.0314594 	-4.53351e-23 -0.0107803 	0.0322195 	7.05081e-22 -0.0106882 	0.0329575 	1.6594e-21 -0.0103424 	0.0338035 	2.31212e-21 -0.0101066 	0.0343733 	2.07047e-21 -0.0099092 	0.0348753 	1.57697e-21 -0.00972148 	0.0353954 	1.09385e-21 -0.00946151 	0.0361786 	4.04396e-22 -0.00937486 	0.0364694 	3.03081e-22 -0.00929057 	0.0367649 	2.02017e-22 -0.0092086 	0.0370648 	1.012e-22 -0.00913202 	0.0373636 	2.85277e-24 -0.00919469 	0.0374151 	3.01759e-24 -0.00869549 	0.0383298 	-8.79153e-23 -0.00842792 	0.0393052 	-2.98749e-22 -0.00818203 	0.0403269 	-5.13515e-22 -0.00808381 	0.0411332 	-7.31695e-22 -0.00832099 	0.0412858 	-9.44625e-22 -0.00765477 	0.0424336 	-6.19604e-22 -0.00707076 	0.0436608 	-1.51112e-22 -0.00689161 	0.0448089 	1.24917e-21 -0.00718467 	0.0449708 	2.36251e-21 -0.00746113 	0.0450987 	3.43795e-21 -0.00679011 	0.0464728 	1.91715e-21 -0.00614574 	0.047949 	4.17175e-22 -0.00598856 	0.0485765 	6.7406e-25 -0.00631111 	0.0487015 	3.61577e-24 -0.00661773 	0.0487875 	6.47747e-24 -0.0059468 	0.0503807 	2.68962e-24 -0.00544882 	0.0516886 	0 -0.00534295 	0.0520793 	0 -0.0054773 	0.0522883 	-3.01009e-21 -0.00580374 	0.0523125 	-8.4677e-21 -0.00513833 	0.0541108 	-1.62893e-21 -0.00490136 	0.0548525 	0 -0.00479899 	0.0552687 	0 -0.00469924 	0.0557056 	0 -0.00503553 	0.0556477 	-1.07171e-23 -0.00447202 	0.0573512 	0 -0.00437183 	0.0577636 	0 -0.00427398 	0.0581971 	0 -0.00417843 	0.058651 	0 -0.00432613 	0.0587507 	2.5192e-21 -0.00396756 	0.0599701 	3.27446e-37 -0.00387475 	0.0603924 	9.58614e-37 -0.00378392 	0.0608348 	1.58868e-36 -0.00369503 	0.061297 	2.21766e-36 -0.00369504 	0.061609 	2.95847e-36 -0.00354574 	0.0622073 	3.21867e-36 -0.00349321 	0.0624785 	2.68426e-36 -0.00344134 	0.0627574 	2.15274e-36 -0.00339013 	0.063044 	1.62406e-36 -0.00332235 	0.0634383 	9.1905e-37 -0.00329848 	0.0635847 	7.2654e-37 -0.00327475 	0.0637327 	5.34116e-37 -0.00325117 	0.0638824 	3.41778e-37 -0.00322774 	0.0640338 	1.49524e-37 -0.00322822 	0.0640229 	4.46936e-39 -0.00314352 	0.0645255 	-5.10489e-37 -0.00308204 	0.0649562 	-1.07349e-36 -0.00302174 	0.0654018 	-1.63728e-36 -0.00296259 	0.0658623 	-2.20184e-36 -0.00299612 	0.0656489 	-2.76646e-36 -0.00287408 	0.066466 	-2.14871e-36 -0.00284508 	0.0669051 	-1.53232e-36 -0.00281674 	0.0673533 	-9.16324e-37 -0.00278906 	0.0678104 	-3.00729e-37 -0.00290834 	0.0670653 	0 -0.00275757 	0.0682322 	0 -0.00278174 	0.0686972 	0 -0.00280583 	0.0691611 	0 -0.00282985 	0.0696239 	0 -0.00304551 	0.0683082 	0 -0.0028582 	0.0698801 	0 -0.00296826 	0.0704051 	0 -0.00307692 	0.0709118 	0 -0.00318421 	0.0714007 	0 -0.00352096 	0.069383 	0 -0.00326069 	0.0714704 	0 -0.00350574 	0.07212 	0 -0.00374845 	0.0727175 	0 -0.00401937 	0.0728267 	0 -0.00448077 	0.0702021 	0 -0.00424176 	0.0726082 	0 -0.00450071 	0.0739031 	0 -0.00495073 	0.0746737 	0 -0.00546464 	0.0737245 	0 -0.0060649 	0.0704228 	0 -0.00587494 	0.0734362 	0 -0.00600656 	0.0758887 	0 -0.00676422 	0.0769798 	0 -0.00753133 	0.0738085 	0 -0.00826821 	0.0692443 	0 -0.0081992 	0.0734815 	0 -0.00815144 	0.077901 	0 -0.00897941 	0.0780554 	0 -0.00981232 	0.0717003 	0 -0.0105486 	0.0647923 	0 -0.0107509 	0.071555 	0 -0.0110077 	0.0786636 	0 -0.0103986 	0.0748741 	0 -0.0108727 	0.064605 	0 -0.0111486 	0.0535386 	0 -0.0118661 	0.06571 	0 -0.0112951 	0.0655822 	0 -0.00978834 	0.0568338 	0 -0.00828162 	0.0480854 	0 -0.00698125 	0.0303083 	0 -0.00766335 	0.0448372 	0 -0.00622541 	0.0364241 	0 -0.00478748 	0.0280109 	0 -0.00334954 	0.0195977 	0 0 	0 	0