<?xml version="1.0"?>
<VTKFile type="UnstructuredGrid"  version="0.1"  >
<UnstructuredGrid>
<Piece  NumberOfPoints="121" NumberOfCells="200">
<Points>
<DataArray  type="Float64"  NumberOfComponents="3"  format="ascii">0 0 0  0.1 0 0  0.2 0 0  0.3 0 0  0.4 0 0  0.5 0 0  0.6 0 0  0.7 0 0  0.8 0 0  0.9 0 0  1 0 0  0 0.1 0  0.1 0.1 0  0.2 0.1 0  0.3 0.1 0  0.4 0.1 0  0.5 0.1 0  0.6 0.1 0  0.7 0.1 0  0.8 0.1 0  0.9 0.1 0  1 0.1 0  0 0.2 0  0.1 0.2 0  0.2 0.2 0  0.3 0.2 0  0.4 0.2 0  0.5 0.2 0  0.6 0.2 0  0.7 0.2 0  0.8 0.2 0  0.9 0.2 0  1 0.2 0  0 0.3 0  0.1 0.3 0  0.2 0.3 0  0.3 0.3 0  0.4 0.3 0  0.5 0.3 0  0.6 0.3 0  0.7 0.3 0  0.8 0.3 0  0.9 0.3 0  1 0.3 0  0 0.4 0  0.1 0.4 0  0.2 0.4 0  0.3 0.4 0  0.4 0.4 0  0.5 0.4 0  0.6 0.4 0  0.7 0.4 0  0.8 0.4 0  0.9 0.4 0  1 0.4 0  0 0.5 0  0.1 0.5 0  0.2 0.5 0  0.3 0.5 0  0.4 0.5 0  0.5 0.5 0  0.6 0.5 0  0.7 0.5 0  0.8 0.5 0  0.9 0.5 0  1 0.5 0  0 0.6 0  0.1 0.6 0  0.2 0.6 0  0.3 0.6 0  0.4 0.6 0  0.5 0.6 0  0.6 0.6 0  0.7 0.6 0  0.8 0.6 0  0.9 0.6 0  1 0.6 0  0 0.7 0  0.1 0.7 0  0.2 0.7 0  0.3 0.7 0  0.4 0.7 0  0.5 0.7 0  0.6 0.7 0  0.7 0.7 0  0.8 0.7 0  0.9 0.7 0  1 0.7 0  0 0.8 0  0.1 0.8 0  0.2 0.8 0  0.3 0.8 0  0.4 0.8 0  0.5 0.8 0  0.6 0.8 0  0.7 0.8 0  0.8 0.8 0  0.9 0.8 0  1 0.8 0  0 0.9 0  0.1 0.9 0  0.2 0.9 0  0.3 0.9 0  0.4 0.9 0  0.5 0.9 0  0.6 0.9 0  0.7 0.9 0  0.8 0.9 0  0.9 0.9 0  1 0.9 0  0 1 0  0.1 1 0  0.2 1 0  0.3 1 0  0.4 1 0  0.5 1 0  0.6 1 0  0.7 1 0  0.8 1 0  0.9 1 0  1 1 0  </DataArray>
</Points>
<Cells>
<DataArray  type="UInt32"  Name="connectivity"  format="ascii">0 1 12  0 11 12  1 2 13  1 12 13  2 3 14  2 13 14  3 4 15  3 14 15  4 5 16  4 15 16  5 6 17  5 16 17  6 7 18  6 17 18  7 8 19  7 18 19  8 9 20  8 19 20  9 10 21  9 20 21  11 12 23  11 22 23  12 13 24  12 23 24  13 14 25  13 24 25  14 15 26  14 25 26  15 16 27  15 26 27  16 17 28  16 27 28  17 18 29  17 28 29  18 19 30  18 29 30  19 20 31  19 30 31  20 21 32  20 31 32  22 23 34  22 33 34  23 24 35  23 34 35  24 25 36  24 35 36  25 26 37  25 36 37  26 27 38  26 37 38  27 28 39  27 38 39  28 29 40  28 39 40  29 30 41  29 40 41  30 31 42  30 41 42  31 32 43  31 42 43  33 34 45  33 44 45  34 35 46  34 45 46  35 36 47  35 46 47  36 37 48  36 47 48  37 38 49  37 48 49  38 39 50  38 49 50  39 40 51  39 50 51  40 41 52  40 51 52  41 42 53  41 52 53  42 43 54  42 53 54  44 45 56  44 55 56  45 46 57  45 56 57  46 47 58  46 57 58  47 48 59  47 58 59  48 49 60  48 59 60  49 50 61  49 60 61  50 51 62  50 61 62  51 52 63  51 62 63  52 53 64  52 63 64  53 54 65  53 64 65  55 56 67  55 66 67  56 57 68  56 67 68  57 58 69  57 68 69  58 59 70  58 69 70  59 60 71  59 70 71  60 61 72  60 71 72  61 62 73  61 72 73  62 63 74  62 73 74  63 64 75  63 74 75  64 65 76  64 75 76  66 67 78  66 77 78  67 68 79  67 78 79  68 69 80  68 79 80  69 70 81  69 80 81  70 71 82  70 81 82  71 72 83  71 82 83  72 73 84  72 83 84  73 74 85  73 84 85  74 75 86  74 85 86  75 76 87  75 86 87  77 78 89  77 88 89  78 79 90  78 89 90  79 80 91  79 90 91  80 81 92  80 91 92  81 82 93  81 92 93  82 83 94  82 93 94  83 84 95  83 94 95  84 85 96  84 95 96  85 86 97  85 96 97  86 87 98  86 97 98  88 89 100  88 99 100  89 90 101  89 100 101  90 91 102  90 101 102  91 92 103  91 102 103  92 93 104  92 103 104  93 94 105  93 104 105  94 95 106  94 105 106  95 96 107  95 106 107  96 97 108  96 107 108  97 98 109  97 108 109  99 100 111  99 110 111  100 101 112  100 111 112  101 102 113  101 112 113  102 103 114  102 113 114  103 104 115  103 114 115  104 105 116  104 115 116  105 106 117  105 116 117  106 107 118  106 117 118  107 108 119  107 118 119  108 109 120  108 119 120  </DataArray>
<DataArray  type="UInt32"  Name="offsets"  format="ascii">3 6 9 12 15 18 21 24 27 30 33 36 39 42 45 48 51 54 57 60 63 66 69 72 75 78 81 84 87 90 93 96 99 102 105 108 111 114 117 120 123 126 129 132 135 138 141 144 147 150 153 156 159 162 165 168 171 174 177 180 183 186 189 192 195 198 201 204 207 210 213 216 219 222 225 228 231 234 237 240 243 246 249 252 255 258 261 264 267 270 273 276 279 282 285 288 291 294 297 300 303 306 309 312 315 318 321 324 327 330 333 336 339 342 345 348 351 354 357 360 363 366 369 372 375 378 381 384 387 390 393 396 399 402 405 408 411 414 417 420 423 426 429 432 435 438 441 444 447 450 453 456 459 462 465 468 471 474 477 480 483 486 489 492 495 498 501 504 507 510 513 516 519 522 525 528 531 534 537 540 543 546 549 552 555 558 561 564 567 570 573 576 579 582 585 588 591 594 597 600 </DataArray>
<DataArray  type="UInt8"  Name="types"  format="ascii">5 5 5 5 5 5 5 5 5 5 5 5 5 5 5 5 5 5 5 5 5 5 5 5 5 5 5 5 5 5 5 5 5 5 5 5 5 5 5 5 5 5 5 5 5 5 5 5 5 5 5 5 5 5 5 5 5 5 5 5 5 5 5 5 5 5 5 5 5 5 5 5 5 5 5 5 5 5 5 5 5 5 5 5 5 5 5 5 5 5 5 5 5 5 5 5 5 5 5 5 5 5 5 5 5 5 5 5 5 5 5 5 5 5 5 5 5 5 5 5 5 5 5 5 5 5 5 5 5 5 5 5 5 5 5 5 5 5 5 5 5 5 5 5 5 5 5 5 5 5 5 5 5 5 5 5 5 5 5 5 5 5 5 5 5 5 5 5 5 5 5 5 5 5 5 5 5 5 5 5 5 5 5 5 5 5 5 5 5 5 5 5 5 5 5 5 5 5 5 5 </DataArray>
</Cells>
<PointData  Vectors="f_24-0"> 
<DataArray  type="Float64"  Name="f_24-0"  NumberOfComponents="3" format="ascii">1.0000000000000000e+01 0.0000000000000000e+00 0.0000000000000000e+00  -2.8666727718982959e-01 0.0000000000000000e+00 0.0000000000000000e+00  -6.0724182721469391e-03 0.0000000000000000e+00 0.0000000000000000e+00  2.3270600143987601e-03 0.0000000000000000e+00 0.0000000000000000e+00  -3.3279909457519403e-04 0.0000000000000000e+00 0.0000000000000000e+00  1.2379214567291889e-03 0.0000000000000000e+00 0.0000000000000000e+00  -9.1976670770276582e-03 0.0000000000000000e+00 0.0000000000000000e+00  7.0666432544666730e-02 0.0000000000000000e+00 0.0000000000000000e+00  -4.8511298761532079e-01 0.0000000000000000e+00 0.0000000000000000e+00  3.7513106902928541e+00 0.0000000000000000e+00 0.0000000000000000e+00  -1.0000000000000000e+01 0.0000000000000000e+00 0.0000000000000000e+00  1.0000000000000000e+01 0.0000000000000000e+00 0.0000000000000000e+00  -2.1312815618923517e+00 0.0000000000000000e+00 0.0000000000000000e+00  1.6154202010709512e-01 0.0000000000000000e+00 0.0000000000000000e+00  -6.5124230252138603e-03 0.0000000000000000e+00 0.0000000000000000e+00  -3.7733724368981084e-05 0.0000000000000000e+00 0.0000000000000000e+00  5.6182301672814288e-04 0.0000000000000000e+00 0.0000000000000000e+00  -3.8764890406752296e-03 0.0000000000000000e+00 0.0000000000000000e+00  2.9842775509042654e-02 0.0000000000000000e+00 0.0000000000000000e+00  -2.1359504573514498e-01 0.0000000000000000e+00 0.0000000000000000e+00  1.9757929819461661e+00 0.0000000000000000e+00 0.0000000000000000e+00  -1.0000000000000000e+01 0.0000000000000000e+00 0.0000000000000000e+00  1.0000000000000000e+01 0.0000000000000000e+00 0.0000000000000000e+00  -2.0467638150872403e+00 0.0000000000000000e+00 0.0000000000000000e+00  2.4991588777889001e-01 0.0000000000000000e+00 0.0000000000000000e+00  -3.3824701382759156e-02 0.0000000000000000e+00 0.0000000000000000e+00  2.7858202118551628e-03 0.0000000000000000e+00 0.0000000000000000e+00  4.7995027604584123e-04 0.0000000000000000e+00 0.0000000000000000e+00  -4.5927398814399768e-03 0.0000000000000000e+00 0.0000000000000000e+00  3.4737309246445768e-02 0.0000000000000000e+00 0.0000000000000000e+00  -2.4244137969426888e-01 0.0000000000000000e+00 0.0000000000000000e+00  2.0623082345643575e+00 0.0000000000000000e+00 0.0000000000000000e+00  -1.0000000000000000e+01 0.0000000000000000e+00 0.0000000000000000e+00  1.0000000000000000e+01 0.0000000000000000e+00 0.0000000000000000e+00  -2.0612997165967295e+00 0.0000000000000000e+00 0.0000000000000000e+00  2.3931258332073316e-01 0.0000000000000000e+00 0.0000000000000000e+00  -3.5263470719640845e-02 0.0000000000000000e+00 0.0000000000000000e+00  4.5720227131638910e-03 0.0000000000000000e+00 0.0000000000000000e+00  3.7695704473498170e-05 0.0000000000000000e+00 0.0000000000000000e+00  -4.4574348502269797e-03 0.0000000000000000e+00 0.0000000000000000e+00  3.4239098678102244e-02 0.0000000000000000e+00 0.0000000000000000e+00  -2.4065537973533210e-01 0.0000000000000000e+00 0.0000000000000000e+00  2.0606839247326882e+00 0.0000000000000000e+00 0.0000000000000000e+00  -1.0000000000000000e+01 0.0000000000000000e+00 0.0000000000000000e+00  1.0000000000000000e+01 0.0000000000000000e+00 0.0000000000000000e+00  -2.0606869431639945e+00 0.0000000000000000e+00 0.0000000000000000e+00  2.4092743173202230e-01 0.0000000000000000e+00 0.0000000000000000e+00  -3.4104251390845178e-02 0.0000000000000000e+00 0.0000000000000000e+00  4.4615748614102724e-03 0.0000000000000000e+00 0.0000000000000000e+00  -2.1949610717869308e-05 0.0000000000000000e+00 0.0000000000000000e+00  -4.4363371391582061e-03 0.0000000000000000e+00 0.0000000000000000e+00  3.4262564423012953e-02 0.0000000000000000e+00 0.0000000000000000e+00  -2.4071426981017721e-01 0.0000000000000000e+00 0.0000000000000000e+00  2.0606943134459970e+00 0.0000000000000000e+00 0.0000000000000000e+00  -1.0000000000000000e+01 0.0000000000000000e+00 0.0000000000000000e+00  1.0000000000000000e+01 0.0000000000000000e+00 0.0000000000000000e+00  -2.0607001865695178e+00 0.0000000000000000e+00 0.0000000000000000e+00  2.4069941466751721e-01 0.0000000000000000e+00 0.0000000000000000e+00  -3.4288694948472781e-02 0.0000000000000000e+00 0.0000000000000000e+00  4.4170535987418328e-03 0.0000000000000000e+00 0.0000000000000000e+00  -5.6475756322057685e-19 0.0000000000000000e+00 0.0000000000000000e+00  -4.4170535987418354e-03 0.0000000000000000e+00 0.0000000000000000e+00  3.4288694948472802e-02 0.0000000000000000e+00 0.0000000000000000e+00  -2.4069941466751632e-01 0.0000000000000000e+00 0.0000000000000000e+00  2.0607001865695138e+00 0.0000000000000000e+00 0.0000000000000000e+00  -1.0000000000000000e+01 0.0000000000000000e+00 0.0000000000000000e+00  1.0000000000000000e+01 0.0000000000000000e+00 0.0000000000000000e+00  -2.0606943134459996e+00 0.0000000000000000e+00 0.0000000000000000e+00  2.4071426981017782e-01 0.0000000000000000e+00 0.0000000000000000e+00  -3.4262564423012981e-02 0.0000000000000000e+00 0.0000000000000000e+00  4.4363371391582182e-03 0.0000000000000000e+00 0.0000000000000000e+00  2.1949610717867553e-05 0.0000000000000000e+00 0.0000000000000000e+00  -4.4615748614102724e-03 0.0000000000000000e+00 0.0000000000000000e+00  3.4104251390845192e-02 0.0000000000000000e+00 0.0000000000000000e+00  -2.4092743173202216e-01 0.0000000000000000e+00 0.0000000000000000e+00  2.0606869431639923e+00 0.0000000000000000e+00 0.0000000000000000e+00  -1.0000000000000000e+01 0.0000000000000000e+00 0.0000000000000000e+00  1.0000000000000000e+01 0.0000000000000000e+00 0.0000000000000000e+00  -2.0606839247326896e+00 0.0000000000000000e+00 0.0000000000000000e+00  2.4065537973533216e-01 0.0000000000000000e+00 0.0000000000000000e+00  -3.4239098678102292e-02 0.0000000000000000e+00 0.0000000000000000e+00  4.4574348502269823e-03 0.0000000000000000e+00 0.0000000000000000e+00  -3.7695704473498244e-05 0.0000000000000000e+00 0.0000000000000000e+00  -4.5720227131638832e-03 0.0000000000000000e+00 0.0000000000000000e+00  3.5263470719640838e-02 0.0000000000000000e+00 0.0000000000000000e+00  -2.3931258332073299e-01 0.0000000000000000e+00 0.0000000000000000e+00  2.0612997165967331e+00 0.0000000000000000e+00 0.0000000000000000e+00  -1.0000000000000000e+01 0.0000000000000000e+00 0.0000000000000000e+00  1.0000000000000000e+01 0.0000000000000000e+00 0.0000000000000000e+00  -2.0623082345643593e+00 0.0000000000000000e+00 0.0000000000000000e+00  2.4244137969426913e-01 0.0000000000000000e+00 0.0000000000000000e+00  -3.4737309246445712e-02 0.0000000000000000e+00 0.0000000000000000e+00  4.5927398814399854e-03 0.0000000000000000e+00 0.0000000000000000e+00  -4.7995027604584209e-04 0.0000000000000000e+00 0.0000000000000000e+00  -2.7858202118551572e-03 0.0000000000000000e+00 0.0000000000000000e+00  3.3824701382759170e-02 0.0000000000000000e+00 0.0000000000000000e+00  -2.4991588777889012e-01 0.0000000000000000e+00 0.0000000000000000e+00  2.0467638150872363e+00 0.0000000000000000e+00 0.0000000000000000e+00  -1.0000000000000000e+01 0.0000000000000000e+00 0.0000000000000000e+00  1.0000000000000000e+01 0.0000000000000000e+00 0.0000000000000000e+00  -1.9757929819461668e+00 0.0000000000000000e+00 0.0000000000000000e+00  2.1359504573514537e-01 0.0000000000000000e+00 0.0000000000000000e+00  -2.9842775509042626e-02 0.0000000000000000e+00 0.0000000000000000e+00  3.8764890406752313e-03 0.0000000000000000e+00 0.0000000000000000e+00  -5.6182301672814256e-04 0.0000000000000000e+00 0.0000000000000000e+00  3.7733724368978170e-05 0.0000000000000000e+00 0.0000000000000000e+00  6.5124230252138916e-03 0.0000000000000000e+00 0.0000000000000000e+00  -1.6154202010709484e-01 0.0000000000000000e+00 0.0000000000000000e+00  2.1312815618923526e+00 0.0000000000000000e+00 0.0000000000000000e+00  -1.0000000000000000e+01 0.0000000000000000e+00 0.0000000000000000e+00  1.0000000000000000e+01 0.0000000000000000e+00 0.0000000000000000e+00  -3.7513106902928577e+00 0.0000000000000000e+00 0.0000000000000000e+00  4.8511298761532123e-01 0.0000000000000000e+00 0.0000000000000000e+00  -7.0666432544666688e-02 0.0000000000000000e+00 0.0000000000000000e+00  9.1976670770276634e-03 0.0000000000000000e+00 0.0000000000000000e+00  -1.2379214567291902e-03 0.0000000000000000e+00 0.0000000000000000e+00  3.3279909457519435e-04 0.0000000000000000e+00 0.0000000000000000e+00  -2.3270600143987519e-03 0.0000000000000000e+00 0.0000000000000000e+00  6.0724182721468038e-03 0.0000000000000000e+00 0.0000000000000000e+00  2.8666727718983176e-01 0.0000000000000000e+00 0.0000000000000000e+00  -1.0000000000000000e+01 0.0000000000000000e+00 0.0000000000000000e+00  </DataArray> 
</PointData> 
</Piece>
</UnstructuredGrid>
</VTKFile>