# vtk DataFile Version 2.0
track0
ASCII
DATASET POLYDATA
POINTS 33431 float
0.05 8.57988e-20 2.57396e-18
0.05 0.00217391 -1.05592e-17
0.05 0.00217391 -1.05592e-17
0.05 0.00217391 -1.05592e-17
0.05 0.00217391 -1.05592e-17
0.05 0.00217391 -1.05592e-17
0.05 0.00217391 -1.38778e-17
0.0493333 0.00217665 -6.66134e-18
0.0486667 0.00218005 -5.0654e-18
0.048 0.00218467 -4.72314e-18
0.0473334 0.00219218 -5.73239e-18
0.0466667 0.00220228 -1.38778e-17
0.046 0.00221495 -3.88578e-18
0.0453333 0.00222679 -4.37148e-18
0.0446666 0.00223903 -6.71435e-18
0.044 0.00225404 -1.48223e-17
0.0433333 0.00227247 -1.80411e-17
0.0426667 0.00229481 -1.91513e-17
0.0419999 0.00231502 -2.10253e-17
0.0413332 0.00233536 -2.27028e-17
0.0406666 0.00235846 -1.78054e-17
0.04 0.00238541 -1.80411e-17
0.0393333 0.00241753 -1.22125e-17
0.0386665 0.0024464 -1.40857e-17
0.0379997 0.00247594 -1.34326e-17
0.0373331 0.00250832 -7.02201e-18
0.0366667 0.00254442 0
0.036 0.00258685 -3.19189e-18
0.0353331 0.00262515 3.95767e-18
0.0346663 0.00266562 7.34106e-18
0.0339997 0.00270916 9.18195e-18
0.0333333 0.00275588 4.16334e-18
0.0326667 0.00280975 1.11022e-18
0.0319997 0.00286039 8.46587e-18
0.0313331 0.00291436 4.99175e-18
0.0306667 0.00297179 -1.92039e-18
0.03 0.00303289 1.38778e-18
0.0294038 0.00309298 9.9287e-19
0.0288076 0.00315275 9.44958e-19
0.0282117 0.00321562 -1.78644e-18
0.0276161 0.0032817 -5.8654e-19
0.0271733 0.00333333 4.04112e-18
0.027072 0.00334559 -3.15089e-18
0.0269707 0.00335795 -6.28411e-19
0.0268694 0.00337041 -3.65702e-18
0.0267681 0.00338297 -8.07337e-18
0.0266667 0.00339565 1.55677e-19
0.026 0.00348105 -2.40656e-18
0.0253338 0.00357003 3.36684e-18
0.0246683 0.00366377 1.37364e-17
0.0240034 0.00376244 1.55374e-17
0.0233333 0.00386719 8.8254e-18
0.0226667 0.0039892 6.54055e-18
0.0219994 0.00410811 1.11997e-17
0.0213333 0.00423288 8.88227e-18
0.0206683 0.00436374 2.21796e-18
0.02 0.00451034 1.35663e-17
0.0193333 0.00468394 1.18317e-17
0.0186665 0.00485673 9.75818e-18
0.0179994 0.00502866 9.9812e-18
0.0173355 0.00521275 1.00724e-17
0.0166667 0.00542772 1.38778e-17
0.016 0.00567442 2.10942e-17
0.0153343 0.00592371 1.02026e-17
0.0146739 0.00618675 6.87064e-18
0.0140223 0.00647086 1.54362e-18
0.0136127 0.00666667 9.22622e-19
0.0135568 0.00669499 3.79121e-18
0.013501 0.00672352 -3.05483e-18
0.0134454 0.00675226 5.36451e-18
0.0133898 0.00678122 1.07652e-17
0.0133333 0.00681103 5.31069e-18
0.0126667 0.00716756 -8.34156e-19
0.0120131 0.00754757 4.08411e-18
0.0113752 0.00795339 -9.02461e-19
0.010755 0.00838561 6.93937e-18
0.01 0.00897399 4.16334e-18
0.00977144 0.00917919 8.89761e-18
0.00954556 0.00938733 3.91076e-18
0.0093224 0.00959839 4.55235e-18
0.00910203 0.00981237 1.37163e-17
0.00891385 0.01 1.11022e-17
0.00846441 0.0104585 1.08597e-17
0.00803746 0.0109379 1.66081e-17
0.00763422 0.0114375 9.1093e-18
0.00725323 0.0119543 1.20111e-17
0.00666667 0.0128184 6.93889e-18
0.00660544 0.0129214 9.61249e-18
0.00654473 0.0130247 6.73583e-18
0.00648453 0.0131283 8.02336e-18
0.00642484 0.0132322 8.72939e-18
0.00636696 0.0133333 4.16334e-18
0.00598677 0.014 3.747e-18
0.00564334 0.0146863 5.22365e-19
0.00533006 0.0153869 -9.10222e-19
0.00504259 0.0160985 -4.05694e-18
0.00481488 0.0166667 -6.01355e-18
0.0045492 0.0173333 -4.2486e-18
0.00432134 0.0180139 -5.7786e-18
0.00411934 0.0187025 -5.42334e-18
0.0039273 0.019394 -7.82238e-18
0.00376793 0.02 -7.11809e-18
0.00368101 0.0203226 -2.08625e-18
0.0036024 0.0206473 -1.15131e-17
0.00352622 0.0209726 -8.41592e-18
0.00345206 0.0212984 -1.19132e-17
0.00333333 0.0218348 -2.08167e-17
0.00326998 0.0221345 -1.12077e-17
0.00320808 0.0224345 -1.26986e-17
0.00314759 0.0227348 -1.55749e-17
0.00308849 0.0230354 -1.151e-17
0.00303127 0.0233333 -1.249e-17
0.00290009 0.024 -1.70697e-17
0.00278143 0.024669 -1.29796e-17
0.00266962 0.0253392 -1.29137e-17
0.00256417 0.0260104 -1.37175e-17
0.00246455 0.0266667 -5.55112e-18
0.00235264 0.0273333 -4.57967e-18
0.00225813 0.0280027 1.94961e-18
0.00217553 0.0286736 -1.23424e-18
0.002098 0.0293452 -2.79999e-18
0.00201435 0.03 0
0.00191706 0.0306667 -2.498e-18
0.00183822 0.0313358 -1.87755e-18
0.00177697 0.0320067 -1.57147e-18
0.0017177 0.0326778 -2.90392e-18
0.00164678 0.0333333 6.01e-18
0.00156101 0.034 1.2158e-17
0.00149498 0.0346689 1.29912e-17
0.00144733 0.0353394 1.51185e-17
0.00140074 0.0360099 1.65046e-17
0.00134061 0.0366667 2.86455e-17
0.00126418 0.0373333 2.18339e-17
0.00120917 0.0380021 2.17209e-17
0.00117022 0.038672 2.40691e-17
0.00113128 0.0393419 1.987e-17
0.0010808 0.04 2.10985e-17
0.00101217 0.0406667 2.607e-17
0.000967074 0.0413353 2.24708e-17
0.000932226 0.0420046 2.44172e-17
0.000897379 0.0426739 1.99986e-17
0.000856035 0.0433333 1.45339e-17
0.000794024 0.044 1.88005e-17
0.00075841 0.0446686 1.34507e-17
0.00072704 0.0453374 9.4995e-18
0.000695669 0.0460062 6.95418e-18
0.000663481 0.0466667 4.4462e-18
0.000607156 0.0473333 4.82623e-18
0.000578756 0.0480018 3.34124e-18
0.000550356 0.0486702 1.52065e-18
0.000521956 0.0493386 2.48915e-18
0.000493857 0.05 7.50424e-18
0.000442387 0.0506667 1.14757e-17
0.000416485 0.0513348 1.05499e-17
0.000390584 0.052003 1.22769e-17
0.000364682 0.0526711 1.56745e-17
0.00033901 0.0533333 1.33132e-17
0.00029157 0.054 2.24822e-17
0.00026766 0.0546679 2.25935e-17
0.000243751 0.0553358 2.12982e-17
0.000219842 0.0560038 2.12267e-17
0.000196113 0.0566667 2.7429e-17
0.000156891 0.0572564 3.22928e-17
0.000136959 0.0578471 3.36567e-17
0.000117028 0.0584379 2.80152e-17
9.70962e-05 0.0590286 2.79855e-17
6.43197e-05 0.06 3.73629e-17
5.14557e-05 0.0602024 2.93947e-17
4.47863e-05 0.0604051 3.25189e-17
3.81168e-05 0.0606077 3.77247e-17
3.14474e-05 0.0608104 3.32161e-17
0 0.0617661 4.65853e-17
0.05 0.00434783 5.94331e-18
0.0493333 0.00435106 -1.00096e-18
0.0486667 0.00435683 -3.78613e-18
0.0480001 0.00436465 -4.64915e-18
0.0473334 0.00437403 -3.54064e-18
0.0466667 0.00438628 3.79761e-18
0.046 0.00440254 3.77054e-18
0.0453334 0.00442006 4.43525e-18
0.0446668 0.00443893 -8.31995e-19
0.0440002 0.00445933 -2.00451e-18
0.0433333 0.0044836 2.45813e-18
0.0426667 0.00451304 4.73593e-18
0.042 0.00454265 1.01373e-17
0.0413334 0.0045727 1.09634e-17
0.0406668 0.00460429 2.56734e-18
0.04 0.00464147 4.41347e-18
0.0393333 0.00468506 2.60616e-18
0.0386666 0.00472792 1.84088e-18
0.0379999 0.00477006 -1.74534e-19
0.0373332 0.00481443 5.51978e-18
0.0366667 0.00486623 1.19184e-17
0.036 0.00492583 4.38404e-18
0.0353332 0.00498405 1.36288e-18
0.0346663 0.00504086 2.96103e-18
0.0339997 0.00510128 7.35331e-18
0.0333333 0.00517052 1.80411e-17
0.0326667 0.0052491 9.29812e-18
0.0319998 0.00532592 1.37395e-17
0.0313327 0.00540095 9.89403e-18
0.0306663 0.00548183 1.20345e-17
0.03 0.00557273 6.93889e-18
0.0293333 0.00567469 3.05311e-18
0.0286664 0.00577485 -3.67716e-18
0.0279999 0.00587821 -1.17435e-18
0.0273347 0.00598878 5.29224e-18
0.0266667 0.00610776 6.93889e-18
0.0261011 0.00621954 3.71747e-18
0.0255355 0.0063315 1.18988e-18
0.0249712 0.00644945 7.91691e-18
0.0244082 0.00657371 6.49238e-18
0.0240092 0.00666667 8.58887e-18
0.023874 0.0066994 1.15895e-17
0.023739 0.00673256 1.73656e-17
0.023604 0.00676613 1.20393e-17
0.0234691 0.00680014 1.92028e-17
0.0233333 0.00683484 1.63733e-17
0.0226667 0.0070093 2.02461e-17
0.0220025 0.00719314 1.71644e-17
0.0213415 0.00738786 1.96575e-17
0.0206839 0.007594 2.08751e-17
0.02 0.00782476 2.47504e-17
0.0193333 0.00807503 2.71103e-17
0.0186708 0.00833608 2.65829e-17
0.0180129 0.00860855 2.59095e-17
0.0173624 0.00889822 2.6121e-17
0.0166667 0.00923734 2.498e-17
0.0163824 0.00938987 2.72822e-17
0.0160996 0.00954491 2.45366e-17
0.0158183 0.00970279 2.63929e-17
0.0155391 0.00986439 1.71434e-17
0.015312 0.01 1.80411e-17
0.0149162 0.0102424 2.09562e-17
0.0145263 0.010494 2.05647e-17
0.0141426 0.010755 1.39178e-17
0.0137654 0.0110253 1.97229e-17
0.0133333 0.0113538 2.20316e-17
0.0128477 0.0117497 1.72323e-17
0.0123735 0.0121593 1.78305e-17
0.0119114 0.0125825 1.88479e-17
0.011462 0.0130192 1.71772e-17
0.0111576 0.0133333 1.89643e-17
0.0109261 0.0135823 2.68288e-17
0.0107001 0.0138364 2.76993e-17
0.0104796 0.0140953 1.9899e-17
0.0102646 0.0143586 1.86141e-17
0.01 0.0146963 2.4198e-17
0.00970667 0.0150904 2.03282e-17
0.00942257 0.0154912 1.56917e-17
0.00914763 0.0158983 1.18278e-17
0.00888142 0.0163111 7.41393e-18
0.00865998 0.0166667 1.38778e-18
0.00826132 0.0173256 -2.95545e-18
0.00789302 0.018002 -3.65501e-18
0.00755322 0.0186932 -3.95831e-18
0.00723301 0.0193936 -2.90248e-18
0.00697501 0.02 -7.55644e-18
0.00691334 0.0201518 -1.18738e-17
0.00685308 0.0203041 -8.73786e-18
0.00679393 0.0204569 -3.61447e-18
0.00673567 0.02061 -5.34415e-18
0.00666667 0.0207944 -1.48499e-18
0.00648058 0.0213022 -2.16545e-19
0.00630302 0.021813 7.82192e-19
0.00613357 0.0223266 4.99992e-19
0.00597177 0.0228426 8.09613e-18
0.00582283 0.0233333 6.93889e-18
0.00561897 0.024 1.20737e-17
0.00543633 0.0246728 1.40758e-17
0.00527205 0.0253503 1.51595e-17
0.00511695 0.02603 1.60249e-17
0.00496753 0.0266667 1.20619e-17
0.00480723 0.0273333 1.23554e-17
0.00466676 0.0280045 1.073e-17
0.00454466 0.0286792 9.83241e-18
0.00442627 0.0293545 8.72492e-18
0.00430924 0.03 6.70145e-18
0.00418299 0.0306667 9.68727e-18
0.00407501 0.0313365 1.69501e-17
0.00397359 0.0320074 1.81675e-17
0.00387537 0.0326788 1.42739e-17
0.00378269 0.0333333 1.31295e-17
0.00369282 0.0339381 1.20312e-17
0.00361288 0.0345443 3.63283e-18
0.00353533 0.0351508 6.1673e-18
0.00346007 0.0357576 4.98332e-18
0.00335071 0.0366667 6.90996e-18
0.00334723 0.0366968 1.63442e-17
0.00334378 0.0367269 1.45678e-17
0.00334033 0.036757 1.31492e-17
0.00333688 0.0367871 1.40725e-17
0.00333333 0.0368182 1.6401e-17
0.00326077 0.0374546 1.0484e-17
0.00319056 0.0380912 1.4628e-17
0.0031226 0.0387281 2.04657e-17
0.00305682 0.0393651 1.75806e-17
0.00299337 0.04 1.80411e-17
0.00292473 0.0406667 1.41553e-17
0.00286214 0.0413339 1.3738e-17
0.00280176 0.0420014 1.85437e-17
0.00274351 0.042669 2.53855e-17
0.00268757 0.0433333 2.22045e-17
0.00262556 0.044 2.52576e-17
0.00257236 0.0446674 2.34522e-17
0.00252157 0.045335 2.70976e-17
[...]
POINT_DATA 33431
 FIELD attributes 1
U 3 33431 float
-5.0499e-19 	-6.19118e-22 	0
-0.0117531 	4.83146e-05 	0 -0.0117531 	4.83146e-05 	0 -0.0117531 	4.83146e-05 	0 -0.0117531 	4.83146e-05 	0 -0.0117531 	4.83146e-05 	0 -0.0117531 	4.83146e-05 	0 -0.0120603 	6.13608e-05 	0 -0.0122754 	8.50912e-05 	-9.37213e-25 -0.0122365 	0.000137961 	-4.43155e-24 -0.0120037 	0.000181823 	-7.94083e-24 -0.0117035 	0.000222354 	-1.1464e-23 -0.0120042 	0.000213221 	4.38658e-22 -0.0121735 	0.000223436 	7.34861e-22 -0.0120918 	0.000272424 	7.24208e-22 -0.0118789 	0.000328372 	4.33034e-22 -0.0115997 	0.000388643 	-1.9615e-23 -0.0118839 	0.000360212 	2.79494e-22 -0.0119781 	0.000365487 	4.65877e-22 -0.0118615 	0.00041101 	5.19114e-22 -0.0116788 	0.000472211 	4.32917e-22 -0.011429 	0.00055051 	1.96563e-22 -0.0116885 	0.000506199 	1.44274e-22 -0.0116829 	0.000517516 	1.49752e-22 -0.011541 	0.000560525 	1.87754e-22 -0.011386 	0.000616848 	2.39422e-22 -0.0111721 	0.000711085 	3.30739e-22 -0.0114004 	0.00065466 	2.49598e-22 -0.0112773 	0.000684457 	1.95702e-22 -0.01112 	0.000726315 	1.45746e-22 -0.0109746 	0.000769453 	9.63421e-23 -0.0108053 	0.000873062 	1.22574e-22 -0.010927 	0.000829717 	7.42493e-23 -0.0107527 	0.000870468 	4.96554e-23 -0.0105899 	0.000912759 	2.53593e-23 -0.0104392 	0.000956655 	1.37413e-24 -0.0103094 	0.00103905 	3.2289e-24 -0.010289 	0.00103152 	-1.97068e-23 -0.0101353 	0.00106924 	-1.41608e-23 -0.00999086 	0.00110849 	-8.31803e-24 -0.00985614 	0.00114931 	-2.167e-24 -0.00976339 	0.0011809 	2.64672e-24 -0.00974375 	0.0011885 	3.8192e-24 -0.00972442 	0.00119615 	5.00173e-24 -0.00970541 	0.00120385 	6.19437e-24 -0.00968671 	0.00121161 	7.39715e-24 -0.00964554 	0.00123552 	3.21851e-24 -0.0094692 	0.00126481 	3.10251e-24 -0.00931107 	0.00131132 	3.9016e-24 -0.00916503 	0.00136029 	4.68489e-24 -0.00903161 	0.00141182 	5.45168e-24 -0.00874202 	0.00159993 	2.75054e-23 -0.00850145 	0.0015151 	2.10202e-22 -0.00836138 	0.00156612 	2.48179e-22 -0.00823337 	0.00162014 	2.87948e-22 -0.00802504 	0.00176044 	2.45328e-22 -0.00772951 	0.00201272 	1.02191e-22 -0.00751237 	0.00194655 	2.67767e-22 -0.00729371 	0.00187973 	4.33331e-22 -0.00707823 	0.00196288 	4.43967e-22 -0.00683535 	0.00219688 	3.0117e-22 -0.00662791 	0.00245263 	1.5933e-22 -0.00645032 	0.00241552 	3.07967e-22 -0.0062033 	0.00247081 	3.32583e-22 -0.00593594 	0.00258823 	2.86823e-22 -0.00570015 	0.00272451 	2.38195e-22 -0.00557148 	0.00282447 	2.05193e-22 -0.00555224 	0.00284116 	2.00677e-22 -0.0055333 	0.00285805 	1.96134e-22 -0.00551468 	0.00287514 	1.91564e-22 -0.00548939 	0.00289645 	1.91228e-22 -0.00546074 	0.00292034 	1.92843e-22 -0.00517629 	0.00300976 	1.35288e-22 -0.00495345 	0.00315147 	7.99126e-23 -0.00475816 	0.00331553 	2.28453e-23 -0.00452788 	0.0035288 	2.23925e-23 -0.00427585 	0.00383891 	2.67329e-23 -0.00421439 	0.00388332 	1.54312e-23 -0.00415669 	0.00393129 	4.12258e-24 -0.00409996 	0.00398111 	2.3441e-23 -0.00404546 	0.00403353 	6.03309e-23 -0.00400166 	0.00408202 	9.22503e-23 -0.00377455 	0.00423882 	9.14838e-23 -0.00357105 	0.00442427 	8.70235e-23 -0.00339665 	0.00460699 	7.88665e-23 -0.00324895 	0.00478658 	6.73854e-23 -0.00304136 	0.00511549 	4.38873e-23 -0.0030243 	0.00514518 	7.1544e-23 -0.00300773 	0.00517553 	9.88683e-23 -0.00299163 	0.00520651 	1.25863e-22 -0.0029907 	0.00522772 	6.89199e-23 -0.00299229 	0.00524695 	1.92461e-25 -0.00269618 	0.00538822 	-4.52573e-22 -0.00253497 	0.00566918 	-7.29917e-22 -0.00242143 	0.00599383 	-9.58661e-22 -0.00248809 	0.00620769 	-7.55002e-22 -0.00254283 	0.00638081 	-5.92165e-22 -0.00223122 	0.00666365 	-3.98816e-22 -0.00202788 	0.00691311 	-2.34146e-22 -0.00196113 	0.00706173 	-1.1999e-22 -0.00190082 	0.00722811 	-2.82782e-24 -0.00202148 	0.00750263 	-1.86355e-23 -0.00187087 	0.00772794 	-1.0754e-24 -0.00183187 	0.00782258 	0 -0.00180156 	0.0079133 	0 -0.00177277 	0.00800892 	0 -0.00172784 	0.00817393 	0 -0.00170531 	0.00826533 	0 -0.00168386 	0.00836041 	0 -0.00166346 	0.00845907 	0 -0.00164408 	0.00856119 	0 -0.00167828 	0.00852916 	0 -0.00153326 	0.00864479 	0 -0.00148323 	0.00889067 	0 -0.00143898 	0.00915892 	0 -0.0014234 	0.00937744 	0 -0.0015443 	0.00919932 	0 -0.00131612 	0.00932125 	0 -0.00117775 	0.00956683 	0 -0.00114634 	0.00992915 	0 -0.00125731 	0.0098422 	0 -0.00139891 	0.00958603 	0 -0.00115413 	0.00979499 	0 -0.000921512 	0.0100942 	0 -0.000909658 	0.0103007 	0 -0.00108529 	0.0100313 	0 -0.00124697 	0.00969141 	0 -0.000986825 	0.00999836 	0 -0.000740987 	0.0104243 	0 -0.000714189 	0.01028 	0 -0.000910902 	0.00994952 	0 -0.00109176 	0.00952285 	0 -0.00081756 	0.0099378 	0 -0.000600279 	0.0103264 	0 -0.000580947 	0.00999387 	0 -0.000736179 	0.00959739 	0 -0.000935268 	0.00908421 	0 -0.000648457 	0.00961607 	0 -0.000506961 	0.00973668 	0 -0.000488693 	0.00938583 	0 -0.000562167 	0.00896655 	0 -0.000778794 	0.00837257 	0 -0.000480939 	0.00902892 	0 -0.000415313 	0.00885438 	0 -0.000398134 	0.00848814 	0 -0.000395055 	0.00810588 	0 -0.000628966 	0.00744443 	0 -0.000344346 	0.00810473 	0 -0.000328239 	0.00772563 	0 -0.000312132 	0.00734653 	0 -0.000296025 	0.00696743 	0 -0.000484805 	0.00627946 	0 -0.000258622 	0.00667132 	0 -0.00024348 	0.00628072 	0 -0.000228338 	0.00589012 	0 -0.000213195 	0.00549951 	0 -0.000344008 	0.0048342 	2.42984e-37 -0.000176039 	0.00491784 	0 -0.000161604 	0.00451457 	0 -0.000147168 	0.0041113 	0 -0.000132733 	0.00370803 	0 -0.000206796 	0.0031094 	2.44146e-40 -9.90819e-05 	0.00293655 	0 -8.64945e-05 	0.00256349 	0 -7.3907e-05 	0.00219042 	0 -6.13196e-05 	0.00181736 	0 -7.16041e-05 	0.0011265 	-4.60207e-38 -3.49842e-05 	0.00106313 	0 -3.04497e-05 	0.000925334 	0 -2.59152e-05 	0.000787536 	0 -2.13807e-05 	0.000649737 	0 0 	0 	0
-0.0227306 	0.000110095 	0 -0.0229228 	0.00019845 	0 -0.0230159 	0.000270281 	-1.61279e-24 -0.0229936 	0.000323469 	-5.04218e-24 -0.0228203 	0.000419079 	-4.17292e-23 -0.0225317 	0.000549462 	-1.05546e-22 -0.0226598 	0.000595569 	-5.18608e-22 -0.0227221 	0.000643366 	-7.80326e-22 -0.0226741 	0.000693772 	-7.95782e-22 -0.0224266 	0.000816237 	-5.55617e-22 -0.0220934 	0.000975758 	-1.88428e-22 -0.0221589 	0.000984199 	-4.00293e-22 -0.0221983 	0.00100047 	-5.62241e-22 -0.0221286 	0.00104902 	-5.17823e-22 -0.0217881 	0.00121458 	-2.32038e-22 -0.0214275 	0.00140103 	9.07658e-23 -0.0214354 	0.00137814 	5.26243e-22 -0.0214402 	0.00135489 	9.61853e-22 -0.0213164 	0.00141886 	9.88682e-22 -0.0209173 	0.00162564 	6.12149e-22 -0.0205469 	0.0018368 	2.34674e-22 -0.020505 	0.00179029 	3.75525e-22 -0.0204578 	0.00174294 	5.16581e-22 -0.0202233 	0.00183275 	4.85983e-22 -0.0198293 	0.00206061 	2.81477e-22 -0.0194663 	0.00229436 	7.66927e-23 -0.0193842 	0.00223293 	6.90201e-23 -0.0192959 	0.00217029 	6.14144e-23 -0.0189026 	0.00229436 	6.80561e-23 -0.0185313 	0.002528 	5.57906e-23 -0.0181915 	0.00278218 	4.12501e-23 -0.0180796 	0.00271515 	9.70685e-23 -0.0178007 	0.00276086 	1.14647e-22 -0.017412 	0.00289375 	1.03853e-22 -0.0170446 	0.00303597 	9.17568e-23 -0.0167415 	0.00330867 	3.51378e-23 -0.0165935 	0.00328471 	3.36798e-23 -0.0162698 	0.00340063 	5.45264e-23 -0.0159612 	0.00352263 	7.56506e-23 -0.0156685 	0.00365101 	9.7064e-23 -0.0154723 	0.00374697 	1.12492e-22 -0.015409 	0.00378216 	1.14401e-22 -0.0153467 	0.0038178 	1.16285e-22 -0.0152855 	0.00385388 	1.18145e-22 -0.0152254 	0.00389042 	1.19981e-22 -0.0151197 	0.00395668 	1.23909e-22 -0.0147404 	0.0040803 	1.16309e-22 -0.0144093 	0.00424468 	1.20655e-22 -0.0141017 	0.00442059 	1.23602e-22 -0.0137636 	0.00464403 	1.34604e-22 -0.0132923 	0.00498992 	1.70026e-22 -0.012923 	0.00509209 	9.83543e-23 -0.0125762 	0.00520835 	2.61641e-23 -0.012159 	0.00541434 	3.31957e-24 -0.0117845 	0.00574402 	2.98173e-23 -0.0114207 	0.00612896 	5.60047e-23 -0.0112997 	0.00619343 	2.39319e-23 -0.0111698 	0.00626891 	0 -0.0110059 	0.00637069 	0 -0.0108489 	0.00647747 	0 -0.0107258 	0.0065692 	0 -0.0104809 	0.00676407 	0 -0.0102521 	0.00697259 	0 -0.0100401 	0.00719497 	0 -0.00978036 	0.00743643 	0 -0.00949244 	0.00773806 	0 -0.00920956 	0.00795563 	0 -0.0089535 	0.00819796 	0 -0.00868682 	0.00844286 	0 -0.00843637 	0.00870601 	0 -0.00828158 	0.00890739 	0 -0.00811117 	0.00911685 	0 -0.00795105 	0.00933706 	0 -0.00779004 	0.00954188 	2.33503e-25 -0.00763114 	0.00973866 	6.29241e-25 -0.00744282 	0.00999908 	1.12743e-24 -0.00725363 	0.0102325 	1.21077e-24 -0.00708052 	0.0104843 	1.30727e-24 -0.00692661 	0.0107424 	-7.52514e-24 -0.00681159 	0.0109364 	-7.9718e-23 -0.00672283 	0.0111124 	-1.41047e-22 -0.00631556 	0.011599 	-2.28123e-22 -0.00595953 	0.0121216 	-2.98852e-22 -0.00571215 	0.0124949 	-2.469e-22 -0.00549148 	0.0129064 	-1.94817e-22 -0.00542316 	0.0133461 	-1.86743e-22 -0.00534605 	0.013514 	-1.69226e-22 -0.00528404 	0.0136477 	-1.51088e-22 -0.00523408 	0.0137539 	-1.32451e-22 -0.0051855 	0.0138622 	-1.13923e-22 -0.00512869 	0.0139949 	-9.17776e-23 -0.00498093 	0.0143301 	-5.51043e-23 -0.00484617 	0.0146874 	-1.84172e-23 -0.00472372 	0.0150653 	1.82735e-23 -0.0046688 	0.0153825 	4.62031e-23 -0.00474573 	0.0155192 	5.35553e-23 -0.00433899 	0.0159834 	3.4828e-23 -0.00400723 	0.0165268 	6.681e-23 -0.00391313 	0.0171472 	2.87366e-22 -0.00408179 	0.017393 	5.29577e-22 -0.00423437 	0.0176102 	7.54574e-22 -0.00381816 	0.0182429 	3.7273e-22 -0.00342826 	0.018943 	0 -0.00335969 	0.0191658 	0 -0.00352507 	0.0194433 	3.43959e-25 -0.00373139 	0.0197025 	7.50159e-25 -0.00330788 	0.0205209 	1.40657e-25 -0.00316144 	0.020914 	0 -0.00309925 	0.0211846 	0 -0.00304037 	0.0214712 	0 -0.00323399 	0.0217636 	-1.87916e-22 -0.00295873 	0.0224378 	0 -0.00290441 	0.0227129 	0 -0.00285275 	0.0230022 	0 -0.00280367 	0.0233051 	0 -0.00274406 	0.0237766 	2.82962e-23 -0.00273264 	0.0238128 	0 -0.00273006 	0.0238282 	0 -0.00272749 	0.0238436 	0 -0.00272493 	0.0238591 	0 -0.00272229 	0.0238751 	0 -0.00266887 	0.0241978 	0 -0.00261824 	0.0245373 	0 -0.00257029 	0.0248927 	0 -0.00252493 	0.0252637 	0 -0.0025903 	0.0251595 	0 -0.00240299 	0.0256171 	0 -0.00235433 	0.0260269 	0 -0.00230846 	0.0264549 	0 -0.00226524 	0.0269004 	0 -0.00244506 	0.0262861 	0 -0.00214721 	0.0269425 	0 -0.00208656 	0.0274259 	0 -0.00204553 	0.0279134 	0 -0.00207822 	0.0280455 	0 -0.00229737 	0.0271917 	0 -0.00199009 	0.0279786 	0 -0.00182373 	0.0286635 	0 -0.00178834 	0.0292119 	0 -0.00192012 	0.0288553 	0 -0.00215193 	0.027873 	0 -0.0018367 	0.0287953 	0 -0.00157241 	0.0297514 	7.07483e-38 -0.00154467 	0.030363 	5.24038e-37 -0.00177317 	0.0294751 	9.78322e-37 -0.0020182 	0.0283609 	1.42552e-36 -0.00169607 	0.0294224 	9.13687e-37 -0.00138282 	0.0306135 	4.07874e-37 -0.0013746 	0.031041 	6.73585e-40 -0.00164436 	0.0298967 	1.46801e-39 -0.00190514 	0.0286458 	2.24923e-39 -0.00157643 	0.0298509 	1.36409e-39 -0.00125709 	0.0312018 	4.89597e-40 -0.00125123 	0.0313807 	-2.63587e-37 -0.0015432 	0.0301112 	-7.22215e-37 -0.00182528 	0.0287158 	-1.17313e-36 -0.0014892 	0.0300717 	-6.65809e-37 -0.00116328 	0.0315928 	-1.64791e-37 -0.00115712 	0.0315204 	0 -0.0014822 	0.0301181 	0 -0.00179565 	0.0285626 	0 -0.0014502 	0.0300848 	0 -0.00111632 	0.0317967 	0 -0.00109782 	0.0314394 	0 -0.00147419 	0.0298874 	0 -0.00183551 	0.0281403 	0 -0.00147803 	0.0298619 	0 -0.00117116 	0.0314838 	0 -0.00114793 	0.0308594 	0 -0.00152364 	0.0292686 	0 -0.00195774 	0.0272694 	0 -0.00158719 	0.0292601 	0 -0.00134476 	0.0303604 	0 -0.00130807 	0.029532 	0 -0.00161112 	0.0279587 	0 -0.00215235 	0.0255964 	0 -0.00177532 	0.0280001 	0 -0.00159832 	0.0281838 	0 -0.00153015 	0.0269818 	0 -0.00164685 	0.0254072 	0 -0.00233712 	0.0224959 	0 -0.00198205 	0.0256108 	0 -0.00182891 	0.0239585 	0 -0.00168503 	0.0220736 	0 -0.00154115 	0.0201888 	0 -0.00221188 	0.016669 	0 -0.001903 	0.0182264 	0 -0.00157683 	0.0151025 	0 -0.00125067 	0.0119786 	0 -0.000924505 	0.00885467 	0 -0.000869167 	0.00511013 	0 -0.000816467 	0.00587373 	0 -0.000648868 	0.00466801 	0 -0.00048127 	0.0034623 	0 -0.000313672 	0.00225658 	0 0 	0 	0
-0.0328218 	0.000187266 	0 -0.0327934 	0.000335073 	-4.6755e-23 -0.0327162 	0.00049971 	-1.06669e-22 -0.0326532 	0.000664838 	-1.66879e-22 -0.0326045 	0.000830454 	-2.27385e-22 -0.0325367 	0.000991646 	-2.88713e-22 -0.032429 	0.00111915 	-3.68034e-22 -0.0322893 	0.00126215 	-3.93858e-22 -0.0321612 	0.00140614 	-4.18343e-22 -0.0320449 	0.00155111 	-4.41472e-22 -0.0320349 	0.00156508 	-4.43553e-22 -0.0320089 	0.0016043 	-4.51238e-22 -0.0319838 	0.0016436 	-4.58874e-22 -0.0319597 	0.00168297 	-4.6646e-22 -0.0319364 	0.00172243 	-4.73997e-22 -0.0318981 	0.00176902 	-4.85233e-22 -0.0316871 	0.0019181 	-4.15684e-22 -0.0314825 	0.00206807 	-3.47909e-22 -0.0312921 	0.00221998 	-2.7945e-22 -0.0311163 	0.00237385 	-2.10296e-22 -0.0308533 	0.00257821 	-1.49897e-22 -0.0306224 	0.00271792 	-3.53573e-22 -0.0303736 	0.00286583 	-3.51581e-22 -0.0301394 	0.00301642 	-3.51926e-22 -0.0299201 	0.00316975 	-3.5466e-22 -0.0294926 	0.00343891 	1.11687e-22 -0.0292372 	0.00354979 	-2.29489e-22 -0.0289605 	0.00370068 	-2.55057e-22 -0.0286991 	0.00385515 	-2.82123e-22 -0.0283638 	0.00406133 	-2.065e-22 -0.0278526 	0.00437871 	9.46568e-23 -0.027554 	0.00447834 	4.4685e-23 -0.0272674 	0.00459344 	6.36549e-24 -0.0269957 	0.00475788 	1.19756e-23 -0.0264699 	0.00508162 	2.17508e-23 -0.0259675 	0.00542141 	3.14482e-23 -0.0256478 	0.00552379 	1.70234e-23 -0.0253409 	0.00563116 	2.53925e-24 -0.0248356 	0.00587102 	0 -0.0243424 	0.00621706 	6.21472e-24 -0.023873 	0.00658552 	1.24888e-23 -0.0235552 	0.00670452 	1.84413e-24 -0.023058 	0.00695222 	0 -0.0225469 	0.00723965 	0 -0.0220664 	0.00754343 	0 -0.0216383 	0.00784982 	0 -0.0216312 	0.007856 	0 -0.0216241 	0.00786218 	0 -0.021617 	0.00786837 	0 -0.0216087 	0.00787519 	0 -0.0215979 	0.00788327 	0 -0.0210854 	0.00818624 	0 -0.020607 	0.00851218 	0 -0.0201616 	0.00885936 	0 -0.0196729 	0.00926252 	0 -0.0190572 	0.00978497 	0 -0.0185674 	0.0100961 	0 -0.0180992 	0.0104397 	0 -0.0175231 	0.0108596 	0 -0.0169962 	0.0113158 	0 -0.0164722 	0.0118591 	0 -0.0164669 	0.0118661 	0 -0.0164616 	0.0118731 	0 -0.0164561 	0.0118802 	0 -0.0164491 	0.0118873 	0 -0.016442 	0.0118944 	0 -0.0158446 	0.0123798 	0 -0.0153039 	0.0129175 	0 -0.0148012 	0.0134975 	3.48423e-24 -0.0142561 	0.0140835 	2.95653e-23 -0.0136048 	0.0149325 	6.44232e-23 -0.013546 	0.0150127 	6.46076e-23 -0.0134883 	0.015094 	6.4811e-23 -0.0134289 	0.0151701 	6.50895e-23 -0.0133663 	0.0152372 	6.54765e-23 -0.0133073 	0.0153023 	6.58642e-23 -0.0126966 	0.0159622 	1.5749e-22 -0.0121478 	0.0166931 	2.53629e-22 -0.0116479 	0.0173653 	7.66267e-23 -0.0112578 	0.0180607 	-3.16141e-22 -0.0110259 	0.0185905 	-5.97258e-22 -0.0109224 	0.0188034 	-7.51206e-22 -0.0108221 	0.0190118 	-8.67284e-22 -0.0107252 	0.0191741 	-7.40481e-22 -0.0106308 	0.0193392 	-6.14859e-22 -0.0105249 	0.0195329 	-4.71393e-22 -0.0102413 	0.0200241 	-3.73515e-22 -0.00998139 	0.0205448 	-2.74754e-22 -0.00974414 	0.0210934 	-1.75189e-22 -0.00958913 	0.0214914 	-7.11719e-23 -0.0094828 	0.0218066 	2.43247e-23 -0.00901401 	0.0225851 	2.45512e-22 -0.0085826 	0.023422 	4.68978e-22 -0.00829283 	0.023994 	7.82541e-22 -0.00820419 	0.0245584 	1.46431e-21 -0.00814816 	0.0250896 	2.10819e-21 -0.00782775 	0.0258742 	2.8913e-21 -0.00761937 	0.0264074 	2.54017e-21 -0.00745056 	0.0268803 	1.86835e-21 -0.00729213 	0.0273727 	1.21161e-21 -0.00706044 	0.0281701 	2.09511e-22 -0.00703783 	0.0282584 	1.57713e-22 -0.00701547 	0.0283472 	1.05961e-22 -0.00699336 	0.0284365 	5.42558e-23 -0.0069715 	0.0285262 	2.59637e-24 -0.00699179 	0.0285402 	2.47684e-24 -0.00673084 	0.0292114 	-1.6219e-22 -0.00655003 	0.0299227 	-3.7808e-22 -0.00638424 	0.0306661 	-5.97728e-22 -0.00625785 	0.0313888 	-8.20816e-22 -0.00645403 	0.0315003 	-1.04023e-21 -0.00596508 	0.0323402 	-7.04319e-22 -0.00563028 	0.033223 	1.68696e-24 -0.0055014 	0.0341197 	1.23722e-21 -0.00569865 	0.0343563 	2.19953e-21 -0.00593434 	0.0344634 	3.08873e-21 -0.00543499 	0.0354807 	1.81622e-21 -0.00495571 	0.0365733 	5.60568e-22 -0.00486716 	0.0371731 	9.13297e-25 -0.00515431 	0.0373043 	2.95212e-24 -0.00542696 	0.0374011 	4.93216e-24 -0.00491855 	0.0386037 	2.26213e-24 -0.0044884 	0.0397392 	0 -0.00442306 	0.0400515 	0 -0.00462737 	0.0402212 	-3.15331e-21 -0.00493363 	0.0403002 	-7.54208e-21 -0.00441795 	0.041694 	-1.9147e-21 -0.00420275 	0.0424048 	0 -0.00414112 	0.0427531 	0 -0.00411948 	0.0430852 	-7.74488e-25 -0.00445649 	0.0431379 	-8.82005e-24 -0.00398455 	0.0445854 	0 -0.00392556 	0.0449547 	0 -0.00386843 	0.0453386 	0 -0.00381311 	0.0457366 	0 -0.00400283 	0.0458998 	2.10035e-21 -0.00371572 	0.0469549 	2.63569e-37 -0.00366336 	0.0473599 	7.79555e-37 -0.00361267 	0.0477791 	1.29476e-36 -0.00356361 	0.0482121 	1.8092e-36 -0.00358297 	0.0485748 	2.38915e-36 -0.00350312 	0.048945 	2.5859e-36 -0.00348656 	0.0491126 	2.3093e-36 -0.00347021 	0.0492822 	2.03345e-36 -0.00345408 	0.0494537 	1.75832e-36 -0.00343539 	0.0496574 	1.43615e-36 -0.00341071 	0.0499291 	1.12987e-36 -0.00338655 	0.0502055 	8.23819e-37 -0.00336288 	0.0504864 	5.17996e-37 -0.00333971 	0.0507719 	2.12399e-37 -0.00337253 	0.0507095 	3.98164e-39 -0.00327856 	0.0513283 	-3.45567e-37 -0.00325232 	0.0518103 	-7.93058e-37 -0.00322721 	0.0523032 	-1.2411e-36 -0.0032032 	0.0528066 	-1.68969e-36 -0.00332635 	0.0523311 	-2.13789e-36 -0.0031385 	0.0532984 	-1.63057e-36 -0.00313931 	0.053835 	-1.12533e-36 -0.00314075 	0.0543777 	-6.20356e-37 -0.0031428 	0.0549263 	-1.15629e-37 -0.00338055 	0.0537727 	0 -0.00308542 	0.0551646 	0 -0.00313078 	0.0557783 	0 -0.00317591 	0.0563897 	0 -0.00323444 	0.056891 	0 -0.00358968 	0.0550336 	0 -0.0032322 	0.0567553 	0 -0.00326565 	0.0576657 	0 -0.00338209 	0.0583803 	0 -0.00359787 	0.0581791 	0 -0.00402205 	0.0560232 	0 -0.00365149 	0.0580138 	0 -0.00358256 	0.0595033 	0 -0.00381471 	0.0603819 	0 -0.00423346 	0.059165 	0 -0.00475574 	0.0565567 	0 -0.00437871 	0.0589605 	0 -0.00410831 	0.0613494 	0 -0.0045267 	0.0624986 	0 -0.00519511 	0.0595839 	0 -0.00584188 	0.0562309 	0 -0.00548681 	0.0593457 	0 -0.00515452 	0.0626872 	0 -0.00556618 	0.0628369 	0 -0.0063972 	0.0586233 	0 -0.00716241 	0.0539769 	0 -0.00690803 	0.0584166 	0 -0.00669621 	0.0631883 	0 -0.00646455 	0.0609812 	0 -0.00736832 	0.0547432 	0 -0.00813464 	0.0478264 	0 -0.00815315 	0.0548676 	0 -0.00786877 	0.0566086 	0 -0.00713237 	0.0513109 	0 -0.00671323 	0.0446451 	0 -0.00710928 	0.0339304 	0 -0.0074006 	0.0436251 	0 -0.00592152 	0.0349062 	0 -0.00444244 	0.0261873 	0 -0.00296337 	0.0174685 	0 -0.0015646 	0.00687048 	0 -0.00170762 	0.0101611 	0 -0.00138898 	0.0082651 	0 -0.00107034 	0.00636906 	0 -0.000751709 	0.00447303 	0 0 	0 	0