# vtk DataFile Version 2.0
track0
ASCII
DATASET POLYDATA
POINTS 41166 float
0.05 8.57988e-20 2.57396e-18
0.05 0.00217391 -1.05592e-17
0.05 0.00217391 -1.05592e-17
0.05 0.00217391 -1.05592e-17
0.05 0.00217391 -1.05592e-17
0.05 0.00217391 -1.05592e-17
0.05 0.00217391 -1.38778e-17
0.0493333 0.00217505 -1.01308e-17
0.0486667 0.00217723 -7.84095e-18
0.048 0.00218099 -2.99455e-18
0.0473334 0.00218792 4.68306e-18
0.0466667 0.00219741 1.11022e-17
0.046 0.00220933 3.747e-18
0.0453333 0.0022207 3.60824e-18
0.0446667 0.00223268 6.97943e-18
0.0440001 0.00224769 4.56427e-18
0.0433333 0.00226617 0
0.0426667 0.0022885 2.35922e-18
0.0419999 0.00230887 3.26086e-18
0.0413332 0.00232951 2.66304e-18
0.0406666 0.0023531 5.10186e-18
0.04 0.00238068 0
0.0393333 0.0024134 5.13478e-18
0.0386665 0.00244299 4.30236e-18
0.0379997 0.00247334 3.56339e-18
0.0373331 0.00250668 6.17825e-18
0.0366667 0.0025439 6.93889e-18
0.036 0.00258747 5.82867e-18
0.0353331 0.00262696 7.42716e-18
0.0346663 0.00266873 1.01478e-17
0.0339997 0.00271371 -7.03637e-19
0.0333333 0.002762 -6.93889e-18
0.0326667 0.00281744 -1.13798e-17
0.0319998 0.0028698 -1.02691e-17
0.0313331 0.00292557 -1.44184e-17
0.0306668 0.00298492 -1.50823e-17
0.03 0.00304805 -1.80411e-17
0.02945 0.00310511 -1.43496e-17
0.0288999 0.00316187 -1.89847e-17
0.0283501 0.00322131 -2.10832e-17
0.0278006 0.00328352 -2.0399e-17
0.0273802 0.00333333 -2.52792e-17
0.0272375 0.00335084 -1.93907e-17
0.0270948 0.00336855 -3.08494e-17
0.0269522 0.00338646 -2.42669e-17
0.0268095 0.00340458 -2.73987e-17
0.0266667 0.00342295 -3.30828e-17
0.026 0.00351158 -2.59225e-17
0.0253338 0.00360342 -2.98565e-17
0.0246682 0.00370008 -3.03255e-17
0.0240034 0.00380175 -2.5402e-17
0.0233333 0.00390961 -2.87153e-17
0.0226667 0.00403596 -2.40685e-17
0.0219994 0.00415908 -2.14979e-17
0.0213331 0.0042875 -2.09534e-17
0.0206681 0.00442205 -2.08266e-17
0.02 0.00457382 -9.96637e-18
0.0193333 0.00475286 -8.80631e-18
0.0186665 0.00493127 -1.14563e-17
0.0179995 0.00510898 -1.2131e-17
0.0173359 0.00529932 -8.6198e-18
0.0166667 0.00552081 -1.38778e-17
0.0160621 0.00574998 -1.6531e-17
0.0154584 0.00598138 -1.82838e-17
0.014859 0.00622354 -1.24185e-17
0.0142665 0.00648232 -1.64422e-17
0.0138765 0.00666667 -1.89457e-17
0.0137679 0.00672081 -2.15403e-17
0.0136596 0.0067757 -1.71967e-17
0.0135518 0.00683136 -1.97926e-17
0.0134443 0.00688777 -2.04598e-17
0.0133333 0.00694731 -2.26718e-17
0.0126667 0.00731431 -2.46708e-17
0.0120123 0.00770288 -1.97668e-17
0.0113733 0.00811608 -2.41294e-17
0.0107515 0.0085548 -2.18247e-17
0.01 0.00914535 -1.38778e-17
0.00980932 0.00931628 -1.75648e-17
0.0096203 0.00948903 -1.70926e-17
0.00943294 0.00966359 -1.39065e-17
0.00924731 0.00983999 -2.13091e-17
0.00908225 0.01 -1.94289e-17
0.00859913 0.0104768 -2.10135e-17
0.00813913 0.0109759 -2.84142e-17
0.00770374 0.0114966 -3.04598e-17
0.007292 0.0120362 -2.49015e-17
0.00666667 0.0129275 -3.05311e-17
0.00661678 0.0130087 -3.61653e-17
0.0065672 0.01309 -3.62479e-17
0.00651792 0.0131716 -3.633e-17
0.00646894 0.0132533 -3.5753e-17
0.0064211 0.0133333 -3.747e-17
0.00602374 0.014 -2.81719e-17
0.00566271 0.014687 -3.03569e-17
0.00533235 0.0153893 -2.9354e-17
0.00502873 0.0161036 -3.59888e-17
0.00479187 0.0166667 -3.41735e-17
0.00451355 0.0173333 -3.45219e-17
0.0042747 0.0180151 -2.92389e-17
0.00406193 0.0187055 -2.48826e-17
0.00386001 0.0193992 -3.14665e-17
0.00369473 0.02 -2.85911e-17
0.00362245 0.0202597 -2.093e-17
0.00355591 0.0205209 -2.62179e-17
0.00349123 0.0207826 -1.97763e-17
0.00342802 0.0210447 -2.40918e-17
0.00333333 0.0214469 -3.24981e-17
0.00324773 0.0218242 -3.34492e-17
0.00316475 0.022202 -2.80363e-17
0.00308428 0.0225805 -2.81703e-17
0.00300625 0.0229594 -2.27492e-17
0.00293165 0.0233333 -2.498e-17
0.00279421 0.024 -2.88658e-17
0.00267221 0.0246697 -2.72055e-17
0.00255793 0.0253407 -3.13697e-17
0.00245074 0.0260129 -2.37153e-17
0.00234788 0.0266667 -2.35922e-17
0.00223183 0.0273333 -1.91513e-17
0.00213464 0.028003 -1.64377e-17
0.00205302 0.0286748 -1.42752e-17
0.00197711 0.0293472 -1.47417e-17
0.00189217 0.03 -1.38778e-17
0.00179273 0.0306667 -1.15186e-17
0.00171334 0.031336 -1.22863e-17
0.00165299 0.0320074 -1.40271e-17
0.00159472 0.0326789 -2.13325e-17
0.00152431 0.0333333 -2.33841e-17
0.00143826 0.034 -2.06161e-17
0.00137365 0.0346691 -1.96236e-17
0.00132879 0.0353398 -2.21389e-17
0.00128486 0.0360105 -1.7688e-17
0.0012269 0.0366667 -1.90435e-17
0.00115201 0.0373333 -2.10004e-17
0.00110013 0.0380022 -1.31389e-17
0.00106227 0.038672 -1.34009e-17
0.00102441 0.0393418 -1.3268e-17
0.000977588 0.04 -1.27302e-17
0.000912247 0.0406667 -8.25307e-19
0.000871823 0.0413353 -1.30981e-18
0.000839104 0.0420044 -4.72572e-18
0.000806385 0.0426734 1.63172e-18
0.000769858 0.0433333 2.88127e-18
0.000712832 0.044 8.94565e-19
0.000682994 0.0446684 5.9432e-18
0.000654743 0.0453369 4.79716e-19
0.000626491 0.0460054 5.26449e-18
0.000598548 0.0466667 4.55433e-18
0.000548828 0.0473333 3.69713e-19
0.000524482 0.0480014 6.55463e-19
0.000500137 0.0486695 -3.33536e-18
0.000475791 0.0493376 -3.06015e-18
0.00045165 0.05 2.02341e-18
0.000408332 0.0506667 1.81799e-18
0.000387365 0.0513344 2.27104e-18
0.000366397 0.0520022 7.07409e-18
0.00034543 0.0526699 2.49262e-18
0.000324598 0.0533333 1.05617e-17
0.000286773 0.054 1.31227e-17
0.000268624 0.0546675 7.32559e-18
0.000250474 0.055335 1.12383e-17
0.000232324 0.0560025 9.43277e-18
0.000214264 0.0566667 9.35763e-18
0.000180914 0.0573333 1.26051e-17
0.000164908 0.0580006 8.88578e-18
0.000148901 0.058668 2.06064e-17
0.000132895 0.0593353 1.63726e-17
0.00011695 0.06 1.22952e-17
9.35597e-05 0.0605174 1.00734e-17
8.21052e-05 0.0610353 1.75468e-17
7.06507e-05 0.0615531 1.91222e-17
5.91963e-05 0.062071 2.50006e-17
3.12742e-05 0.0633333 3.18668e-17
2.50194e-05 0.0634792 4.09672e-17
2.17859e-05 0.0636251 4.24299e-17
1.85524e-05 0.063771 4.51069e-17
1.53189e-05 0.0639169 4.25797e-17
0 0.0646082 4.09809e-17
0.05 0.00434783 5.94331e-18
0.0493333 0.00434877 1.77841e-18
0.0486667 0.00435277 -4.47326e-18
0.048 0.00435916 -8.46552e-18
0.0473334 0.00436722 -5.63361e-18
0.0466667 0.00437819 -1.74004e-18
0.046 0.00439318 -8.01e-18
0.0453334 0.00440983 -3.1805e-18
0.0446668 0.00442811 -5.68908e-18
0.0440003 0.00444802 -6.97502e-18
0.0433333 0.00447184 -6.98772e-18
0.0426667 0.00450087 -7.48822e-18
0.042 0.00453035 -6.25101e-18
0.0413334 0.00456053 -6.73085e-18
0.0406669 0.00459236 -9.34872e-18
0.04 0.00462978 -2.05471e-17
0.0393333 0.0046737 -1.64569e-17
0.0386666 0.00471709 -2.06925e-17
0.0379999 0.00475992 -2.1702e-17
0.0373333 0.00480504 -1.9476e-17
0.0366667 0.00485773 -8.29293e-18
0.036 0.00491832 -1.28015e-17
0.0353332 0.00497764 -1.90103e-17
0.0346663 0.00503566 -2.27476e-17
0.0339998 0.00509738 -2.21629e-17
0.0333333 0.00516808 -2.498e-17
0.0326667 0.00524822 -2.81719e-17
0.0319998 0.00532667 -2.51183e-17
0.0313327 0.00540338 -2.87097e-17
0.0306664 0.00548611 -2.82182e-17
0.03 0.00557898 -3.05311e-17
0.0293333 0.00568299 -2.7478e-17
0.0286664 0.00578525 -3.0045e-17
0.028 0.00589089 -2.61332e-17
0.0273348 0.00600384 -2.60934e-17
0.0266667 0.0061253 -3.05311e-17
0.0261288 0.00623357 -2.96353e-17
0.0255909 0.00634195 -3.35968e-17
0.0250541 0.00645577 -3.00141e-17
0.0245186 0.00657527 -3.42607e-17
0.0241293 0.00666667 -3.11628e-17
0.0239701 0.00670546 -3.29794e-17
0.0238111 0.00674483 -3.41023e-17
0.0236522 0.00678478 -4.07765e-17
0.0234934 0.00682532 -4.46755e-17
0.0233333 0.00686683 -3.91911e-17
0.0226667 0.00704464 -3.53239e-17
0.0220025 0.00723159 -3.42475e-17
0.0213415 0.00742935 -4.10579e-17
0.020684 0.00763843 -4.53174e-17
0.02 0.00787266 -4.59066e-17
0.0193333 0.00812621 -4.19773e-17
0.0186708 0.00839027 -3.86428e-17
0.0180127 0.00866546 -4.00312e-17
0.0173621 0.00895775 -4.54488e-17
0.0166667 0.00929882 -4.16334e-17
0.0164061 0.00943906 -3.79039e-17
0.0161467 0.00958129 -4.21552e-17
0.0158885 0.00972579 -4.79702e-17
0.0156319 0.00987327 -4.26858e-17
0.0154174 0.01 -4.30211e-17
0.0150006 0.0102519 -4.20529e-17
0.0145899 0.0105136 -3.95626e-17
0.0141856 0.0107852 -4.7216e-17
0.0137881 0.0110667 -4.2696e-17
0.0133333 0.0114089 -4.05102e-17
0.0128568 0.0117938 -3.41003e-17
0.0123905 0.0121911 -3.34891e-17
0.011935 0.0126007 -3.65291e-17
0.0114911 0.0130228 -2.99529e-17
0.0111825 0.0133333 -2.95092e-17
0.010946 0.013581 -2.74932e-17
0.0107148 0.0138336 -2.17144e-17
0.0104892 0.0140911 -1.68999e-17
0.0102689 0.0143532 -1.67904e-17
0.01 0.0146865 -1.42145e-17
0.00969632 0.0150825 -1.1608e-17
0.00940186 0.0154854 -1.48739e-17
0.00911655 0.0158949 -1.44882e-17
0.00883995 0.0163103 -1.47215e-17
0.00861086 0.0166667 -1.249e-17
0.00822202 0.0172895 -1.20742e-17
0.00786084 0.0179288 -1.79506e-17
0.00752609 0.0185823 -1.60314e-17
0.00720987 0.019245 -9.51888e-18
0.00687392 0.02 -1.47479e-17
0.00683247 0.0200997 -1.62392e-17
0.00679165 0.0201996 -2.15597e-17
0.00675135 0.0202998 -1.45604e-17
0.00671146 0.0204001 -1.67555e-17
0.00666667 0.0205141 -1.53691e-17
0.00644809 0.021078 -1.8124e-17
0.00624104 0.0216461 -2.30364e-17
0.0060449 0.0222182 -1.35255e-17
0.00585899 0.0227936 -1.46144e-17
0.00569064 0.0233333 -1.94289e-17
0.00548131 0.024 -1.98452e-17
0.00529444 0.0246733 -1.7844e-17
0.00512892 0.0253522 -1.81691e-17
0.00497127 0.0260329 -1.15116e-17
0.00482065 0.0266667 -1.22441e-17
0.00465862 0.0273333 -4.32222e-18
0.00451757 0.0280048 -8.59088e-18
0.00439318 0.0286795 -5.78058e-18
0.00427297 0.0293549 -9.9178e-18
0.00415721 0.03 -1.31681e-17
0.00403241 0.0306667 -7.4092e-18
0.00392679 0.0313366 -1.3334e-17
0.00382553 0.0320073 -1.37511e-17
0.00372789 0.0326785 -1.00117e-17
0.0036361 0.0333333 -1.02187e-17
0.00357555 0.0337574 -1.06259e-17
0.00352001 0.0341821 -9.99961e-18
0.00346583 0.034607 -1.19773e-17
0.00341298 0.0350321 -7.94644e-18
0.00333333 0.035689 -5.55112e-18
0.00331053 0.0358845 -1.42576e-18
0.00328798 0.0360801 2.70003e-18
0.00326568 0.0362757 4.05067e-18
0.00324362 0.0364713 4.01394e-18
0.00322184 0.0366667 1.11022e-17
0.00314696 0.0373333 1.41553e-17
0.00307622 0.0380005 7.14631e-18
0.00300837 0.0386679 1.61122e-17
[...]
POINT_DATA 41166
 FIELD attributes 1
U 3 41166 float
-6.42827e-19 	-1.68402e-21 	0
-0.0151789 	2.5845e-05 	0 -0.0151789 	2.5845e-05 	0 -0.0151789 	2.5845e-05 	0 -0.0151789 	2.5845e-05 	0 -0.0151789 	2.5845e-05 	0 -0.0151789 	2.5845e-05 	0 -0.015512 	5.07798e-05 	0 -0.015749 	8.88084e-05 	-4.01815e-25 -0.0157092 	0.000163259 	-1.9218e-24 -0.0154561 	0.000220083 	-3.44891e-24 -0.0151324 	0.000270463 	-4.98202e-24 -0.0154567 	0.000263584 	1.95092e-22 -0.015639 	0.000281188 	3.28815e-22 -0.0155388 	0.000349808 	3.24852e-22 -0.0153054 	0.000424374 	1.94234e-22 -0.0150104 	0.000502637 	-6.26712e-24 -0.015312 	0.000467862 	3.90792e-23 -0.0154031 	0.00047678 	6.26421e-23 -0.0152537 	0.000539812 	5.95084e-23 -0.0150496 	0.000622602 	3.47956e-23 -0.0147944 	0.000726232 	-1.23713e-23 -0.0150627 	0.000668426 	-9.07698e-24 -0.015033 	0.000684108 	-2.57278e-23 -0.0148482 	0.000742699 	-5.3824e-23 -0.0146647 	0.000818992 	-8.28979e-23 -0.0144572 	0.000944795 	-1.14596e-22 -0.0146843 	0.000869443 	-8.65268e-23 -0.0145144 	0.000909434 	-8.2565e-23 -0.0143089 	0.000965457 	-8.18649e-23 -0.0141199 	0.00102325 	-8.14339e-23 -0.0139653 	0.00116133 	-1.07019e-22 -0.0140637 	0.00110405 	-1.89488e-22 -0.0138362 	0.00115769 	-1.52318e-22 -0.0136243 	0.00121343 	-1.14573e-22 -0.0134287 	0.00127137 	-7.6229e-23 -0.0132925 	0.00137888 	1.07237e-23 -0.013246 	0.00136697 	-4.64044e-23 -0.0130614 	0.00141211 	-3.30462e-23 -0.0128874 	0.001459 	-1.90169e-23 -0.0127243 	0.0015077 	-4.29274e-24 -0.0126081 	0.0015464 	7.5302e-24 -0.0125715 	0.00156024 	1.17704e-23 -0.0125356 	0.0015742 	1.60629e-23 -0.0125006 	0.00158831 	2.04081e-23 -0.0124665 	0.00160256 	2.48065e-23 -0.0123959 	0.00164799 	9.13609e-24 -0.012158 	0.001676 	6.78361e-24 -0.0119551 	0.00173626 	7.70136e-24 -0.0117682 	0.0017998 	8.58849e-24 -0.011598 	0.00186676 	9.44366e-24 -0.0112411 	0.00213049 	5.11828e-23 -0.0108918 	0.00200965 	3.78983e-22 -0.0107037 	0.00206314 	4.65168e-22 -0.0105419 	0.00213277 	5.37115e-22 -0.0102789 	0.00233516 	4.3722e-22 -0.00994573 	0.00267103 	1.80432e-22 -0.00963953 	0.00257898 	4.45393e-22 -0.00933172 	0.00248624 	7.10337e-22 -0.00901969 	0.00258735 	7.24455e-22 -0.00875278 	0.00289665 	4.91625e-22 -0.00853281 	0.0032346 	2.59971e-22 -0.00830981 	0.00318508 	4.63305e-22 -0.0080285 	0.00324323 	4.98891e-22 -0.00773109 	0.00337683 	4.32179e-22 -0.00746727 	0.00352991 	3.62111e-22 -0.00731532 	0.00364583 	3.13015e-22 -0.00726782 	0.00368539 	2.99155e-22 -0.00722179 	0.0037259 	2.8515e-22 -0.00717722 	0.00376738 	2.70999e-22 -0.00711922 	0.00382072 	2.69393e-22 -0.00705345 	0.00388291 	2.74007e-22 -0.00665048 	0.00394939 	1.81941e-22 -0.00638414 	0.0041278 	9.83167e-23 -0.00614749 	0.00433731 	1.91874e-23 -0.00587855 	0.0046198 	2.60674e-23 -0.00560101 	0.00502098 	3.21135e-23 -0.00553945 	0.00506239 	1.85261e-23 -0.00548101 	0.00510671 	4.93228e-24 -0.00542477 	0.00515498 	3.01258e-23 -0.00537121 	0.00520681 	7.74103e-23 -0.00532605 	0.00525603 	1.19868e-22 -0.00501982 	0.00544661 	1.20698e-22 -0.00474645 	0.0056766 	1.15589e-22 -0.00451298 	0.00591446 	1.04498e-22 -0.00431774 	0.00615439 	8.79071e-23 -0.00405108 	0.00659102 	5.33386e-23 -0.00403437 	0.00661906 	8.83499e-23 -0.00401805 	0.0066476 	1.2306e-22 -0.0040021 	0.00667666 	1.5747e-22 -0.00400237 	0.00669807 	8.4022e-23 -0.00400448 	0.00671835 	3.97482e-25 -0.00361974 	0.00688826 	-6.75668e-22 -0.00340815 	0.00724509 	-1.11728e-21 -0.003256 	0.00765978 	-1.49631e-21 -0.0033461 	0.00795484 	-1.18592e-21 -0.00341999 	0.00819183 	-9.4085e-22 -0.0029953 	0.00855046 	-6.18584e-22 -0.0027309 	0.0088612 	-3.62813e-22 -0.00263827 	0.00906258 	-1.96747e-22 -0.00255528 	0.00928955 	-2.57842e-23 -0.0026854 	0.00964863 	1.74533e-23 -0.00251972 	0.00989206 	1.42073e-24 -0.00247137 	0.0099994 	0 -0.00243578 	0.0100978 	0 -0.00240174 	0.0102009 	0 -0.00235185 	0.0103662 	0 -0.00230944 	0.010516 	0 -0.00226973 	0.0106748 	0 -0.00223261 	0.0108422 	0 -0.00219801 	0.0110178 	0 -0.00226071 	0.0109657 	0 -0.00201526 	0.0110619 	0 -0.00194269 	0.0114063 	0 -0.00187918 	0.0117848 	0 -0.00188873 	0.0120047 	0 -0.0020507 	0.0117812 	0 -0.0017317 	0.0119312 	0 -0.00148507 	0.0122233 	0 -0.00143838 	0.0127412 	0 -0.00162872 	0.0125179 	0 -0.00181697 	0.0121809 	0 -0.00147798 	0.0124607 	0 -0.00115727 	0.0128733 	0 -0.00112561 	0.0129739 	0 -0.00135738 	0.0126154 	0 -0.00156921 	0.0121572 	0 -0.00121494 	0.0125826 	0 -0.000881779 	0.0131831 	0 -0.000839226 	0.0128136 	0 -0.00109233 	0.012366 	0 -0.00132375 	0.0117842 	0 -0.000959213 	0.012367 	0 -0.000718756 	0.0127154 	0 -0.00069402 	0.0122778 	0 -0.000835435 	0.011744 	0 -0.00108227 	0.0110423 	0 -0.00071279 	0.01179 	0 -0.000576597 	0.0117906 	0 -0.000554958 	0.0113481 	0 -0.000599524 	0.0108311 	0 -0.000857113 	0.0100201 	0 -0.000488138 	0.0109354 	0 -0.000447437 	0.0105876 	0 -0.000428929 	0.0101497 	0 -0.000410421 	0.00971173 	0 -0.000657701 	0.00881878 	0 -0.000349065 	0.00957873 	0 -0.000333581 	0.00915382 	0 -0.000318097 	0.00872891 	0 -0.000302612 	0.00830401 	0 -0.000481901 	0.00741642 	0 -0.000248041 	0.00789934 	0 -0.000235305 	0.00749372 	0 -0.000222568 	0.0070881 	0 -0.000209831 	0.00668248 	0 -0.000332495 	0.00586031 	2.89667e-37 -0.000164977 	0.00606732 	0 -0.000154536 	0.00568332 	0 -0.000144094 	0.00529932 	0 -0.000133653 	0.00491532 	0 -0.000210313 	0.00420424 	2.92339e-40 -9.93096e-05 	0.00414018 	0 -9.05231e-05 	0.00377387 	0 -8.17366e-05 	0.00340756 	0 -7.295e-05 	0.00304126 	0 -0.000111696 	0.00247101 	-1.04205e-37 -5.08098e-05 	0.00229708 	0 -4.45892e-05 	0.00201585 	0 -3.83686e-05 	0.00173462 	0 -3.2148e-05 	0.00145339 	0 -3.03252e-05 	0.000706963 	0 -1.454e-05 	0.000656135 	0 -1.26608e-05 	0.000571336 	0 -1.07817e-05 	0.000486537 	0 -8.90253e-06 	0.000401739 	0 0 	0 	0
-0.0295201 	4.16689e-05 	0 -0.0297408 	0.000178628 	0 -0.0298491 	0.000286009 	-7.11645e-25 -0.0298272 	0.00036075 	-2.20858e-24 -0.0296403 	0.000487757 	-1.82044e-23 -0.0293236 	0.000659143 	-4.64634e-23 -0.0294551 	0.000735547 	-2.29856e-22 -0.0295138 	0.000809638 	-3.43e-22 -0.0294559 	0.000879989 	-3.49019e-22 -0.0291767 	0.00104179 	-2.36621e-22 -0.0287967 	0.001254 	-6.09109e-23 -0.0288405 	0.00127537 	-7.44943e-23 -0.0288572 	0.0013066 	-8.59215e-23 -0.028769 	0.0013736 	-8.93944e-23 -0.0283753 	0.00159238 	-5.86938e-23 -0.027956 	0.00184194 	-2.18475e-23 -0.0279199 	0.00181675 	-3.78023e-23 -0.0278807 	0.00179122 	-5.3756e-23 -0.0277266 	0.00187678 	-7.59641e-23 -0.0272539 	0.00215415 	-7.90422e-23 -0.0268202 	0.0024375 	-8.1781e-23 -0.0267166 	0.00237665 	-2.64098e-22 -0.0266064 	0.00231478 	-4.46504e-22 -0.0263025 	0.00243545 	-4.31751e-22 -0.0258363 	0.00274113 	-2.20158e-22 -0.0254122 	0.00305486 	-8.01474e-24 -0.0252563 	0.00297094 	1.51328e-22 -0.0250923 	0.00288544 	3.10604e-22 -0.0245765 	0.00305125 	3.23595e-22 -0.0241349 	0.00336352 	2.374e-22 -0.0237418 	0.0037042 	1.38664e-22 -0.0235499 	0.0036107 	2.75997e-22 -0.0231631 	0.00367193 	3.1171e-22 -0.0226582 	0.00384736 	2.75657e-22 -0.0221818 	0.0040324 	2.38408e-22 -0.0218364 	0.00439534 	9.20353e-23 -0.0216291 	0.00435814 	8.4235e-23 -0.0212317 	0.00450199 	1.14877e-22 -0.020853 	0.00465319 	1.4603e-22 -0.0204939 	0.00481207 	1.77716e-22 -0.0202471 	0.00493369 	2.01209e-22 -0.0201507 	0.00498766 	2.03072e-22 -0.0200564 	0.00504244 	2.04872e-22 -0.0199641 	0.00509805 	2.06608e-22 -0.0198738 	0.00515449 	2.08278e-22 -0.0197191 	0.00525935 	2.1642e-22 -0.0192165 	0.00540911 	1.96222e-22 -0.0187962 	0.00562343 	2.00466e-22 -0.0184076 	0.00585297 	2.02336e-22 -0.0179751 	0.006156 	2.21592e-22 -0.0174019 	0.00661822 	2.80994e-22 -0.0169143 	0.00674112 	1.59446e-22 -0.0164572 	0.00688245 	3.70495e-23 -0.0159003 	0.00714341 	0 -0.0154495 	0.00757672 	3.9949e-23 -0.0150214 	0.00808515 	8.0774e-23 -0.0148778 	0.00815611 	3.46052e-23 -0.0147256 	0.00824058 	0 -0.0145384 	0.00835879 	0 -0.0143587 	0.00848236 	0 -0.0142138 	0.00859099 	0 -0.0138872 	0.00884891 	0 -0.0135841 	0.00912608 	0 -0.0133051 	0.00942281 	0 -0.0129653 	0.00975355 	0 -0.0125906 	0.0101685 	0 -0.0122408 	0.0104304 	0 -0.0119244 	0.0107225 	0 -0.0115936 	0.0110253 	0 -0.0112842 	0.0113537 	0 -0.0110891 	0.011611 	0 -0.0108678 	0.0118804 	0 -0.0106605 	0.0121642 	0 -0.0104504 	0.0124334 	-1.81338e-23 -0.0102407 	0.0126934 	-5.07029e-23 -0.00999509 	0.013035 	-9.13513e-23 -0.00974439 	0.0133337 	-9.75866e-23 -0.00951598 	0.0136577 	-1.04909e-22 -0.00931463 	0.0139884 	-1.35425e-22 -0.00916041 	0.0142487 	-2.81909e-22 -0.00904281 	0.0144848 	-4.06501e-22 -0.00852495 	0.0150891 	-6.28899e-22 -0.00806734 	0.0157493 	-8.16749e-22 -0.0077414 	0.0162225 	-5.24708e-22 -0.00745051 	0.0167449 	-2.37657e-22 -0.00725245 	0.017442 	1.39723e-22 -0.00718432 	0.0175917 	2.37031e-22 -0.00712747 	0.0177123 	2.66274e-22 -0.00708048 	0.0178069 	2.35499e-22 -0.00703437 	0.0179029 	2.05062e-22 -0.00698307 	0.0180134 	1.70913e-22 -0.00674305 	0.0185046 	1.56473e-22 -0.00652737 	0.0190368 	1.43454e-22 -0.00633461 	0.0196071 	1.31774e-22 -0.00626185 	0.0200756 	1.34285e-22 -0.00637357 	0.0202981 	1.59397e-22 -0.00580898 	0.0209298 	1.00164e-22 -0.00527836 	0.0216492 	4.19997e-23 -0.00518902 	0.0224073 	1.71784e-22 -0.00541105 	0.0227668 	3.58565e-22 -0.00561074 	0.023085 	5.31071e-22 -0.00503345 	0.0239604 	2.35171e-22 -0.00457094 	0.0247932 	0 -0.00446741 	0.0251032 	0 -0.00457093 	0.0254705 	2.92208e-25 -0.00483819 	0.0258451 	8.17294e-25 -0.00425369 	0.026983 	3.21502e-26 -0.00413217 	0.0273658 	0 -0.00403545 	0.02774 	0 -0.00394389 	0.0281387 	0 -0.00407538 	0.0285392 	-1.22438e-22 -0.0038154 	0.0291801 	0 -0.00375321 	0.0294355 	0 -0.00369306 	0.029702 	0 -0.00363491 	0.0299791 	0 -0.00354808 	0.0304233 	0 -0.00352406 	0.0305609 	0 -0.00350042 	0.0307005 	0 -0.00347715 	0.0308421 	0 -0.00345424 	0.0309858 	0 -0.00347616 	0.0309453 	0 -0.00332956 	0.031402 	0 -0.00323992 	0.031869 	0 -0.0031547 	0.0323634 	0 -0.00307374 	0.0328842 	0 -0.00318969 	0.0325441 	0 -0.00288763 	0.0332159 	0 -0.00280136 	0.0337381 	0 -0.00271913 	0.0342885 	0 -0.00264962 	0.0348215 	0 -0.00289347 	0.0338263 	0 -0.0025245 	0.0347415 	0 -0.00238394 	0.03539 	0 -0.00230423 	0.0359862 	0 -0.00234879 	0.0359543 	0 -0.00259575 	0.0348051 	0 -0.00223258 	0.0358855 	0 -0.00199523 	0.036808 	0 -0.00191861 	0.0374384 	0 -0.00206179 	0.0368222 	0 -0.00230837 	0.0355257 	0 -0.0019558 	0.0367642 	0 -0.00164685 	0.0380226 	7.59613e-38 -0.00157549 	0.0386754 	6.45785e-37 -0.00180086 	0.0374819 	1.2172e-36 -0.0020452 	0.0360472 	1.78177e-36 -0.0017071 	0.0374331 	1.15309e-36 -0.00137641 	0.0389538 	5.30677e-37 -0.0013284 	0.0394212 	7.81119e-40 -0.00157746 	0.0379553 	1.66097e-39 -0.00182048 	0.0363921 	2.5305e-39 -0.00149933 	0.037913 	1.57541e-39 -0.00118488 	0.0395718 	6.29404e-40 -0.00115406 	0.0398429 	-3.94269e-37 -0.00140659 	0.038263 	-9.71558e-37 -0.00165342 	0.0365782 	-1.54253e-36 -0.00134997 	0.0382236 	-9.21668e-37 -0.0010527 	0.0400089 	-3.06429e-37 -0.00104111 	0.040118 	0 -0.0013089 	0.0384279 	0 -0.00157081 	0.0366199 	0 -0.00128408 	0.0383867 	0 -0.00100335 	0.0402964 	0 -0.00100814 	0.04025 	0 -0.00131193 	0.0384409 	0 -0.00160863 	0.03649 	0 -0.0013367 	0.0383926 	0 -0.00107123 	0.0404449 	0 -0.00107829 	0.0401986 	0 -0.0014506 	0.0382355 	0 -0.00181251 	0.0360859 	0 -0.00155509 	0.0381761 	0 -0.00130576 	0.0404304 	0 -0.00128306 	0.039803 	0 -0.00175767 	0.0376297 	0 -0.00222594 	0.0351579 	0 -0.00199046 	0.0375644 	0 -0.00180238 	0.0393773 	0 -0.00175601 	0.0383643 	0 -0.00221278 	0.0361037 	0 -0.00283192 	0.0330634 	0 -0.00264623 	0.0360744 	0 -0.0025013 	0.0368115 	0 -0.00238545 	0.0351066 	0 -0.00261067 	0.0326466 	0 -0.00340371 	0.0285943 	0 -0.00333962 	0.0328264 	0 -0.00307119 	0.0307256 	0 -0.00277321 	0.0277445 	0 -0.00247523 	0.0247634 	0 -0.00315146 	0.0193837 	0 -0.00305261 	0.0219878 	0 -0.00239866 	0.0172774 	0 -0.0017447 	0.012567 	0 -0.00109075 	0.0078566 	0 -0.000112761 	0.000541678 	0 -0.000118858 	0.000689891 	0 -9.41034e-05 	0.000546207 	0 -6.93486e-05 	0.000402522 	0 -4.45939e-05 	0.000258838 	0 0 	0 	0
-0.042904 	4.604e-05 	0 -0.0428728 	0.000257151 	-2.06384e-23 -0.0427907 	0.0004893 	-4.71311e-23 -0.0427292 	0.00072196 	-7.37657e-23 -0.0426884 	0.000955126 	-1.00542e-22 -0.0426238 	0.00117887 	-1.27714e-22 -0.0424768 	0.00137377 	-1.57542e-22 -0.0422921 	0.00159165 	-1.58396e-22 -0.0421271 	0.00181105 	-1.58444e-22 -0.0419821 	0.00203198 	-1.57678e-22 -0.0419329 	0.00211951 	-1.57053e-22 -0.0419199 	0.00214682 	-1.57396e-22 -0.0419071 	0.00217416 	-1.57734e-22 -0.0418947 	0.00220152 	-1.58068e-22 -0.0418826 	0.00222891 	-1.58397e-22 -0.0418612 	0.002261 	-1.59552e-22 -0.0415849 	0.00246773 	-1.31001e-22 -0.0413243 	0.002676 	-1.02439e-22 -0.041084 	0.00288692 	-7.3681e-23 -0.0408644 	0.00310055 	-4.47253e-23 -0.0405524 	0.00337582 	-2.11053e-23 -0.0402399 	0.00357131 	-9.7428e-24 -0.0399181 	0.00377407 	-1.34412e-24 -0.0396168 	0.00398052 	7.22882e-24 -0.0393364 	0.00419075 	1.59796e-23 -0.0388143 	0.00455042 	1.88148e-23 -0.0384548 	0.00470635 	2.0342e-22 -0.0380952 	0.00491032 	2.45724e-22 -0.0377568 	0.00511918 	2.89269e-22 -0.0373402 	0.0053921 	2.65943e-22 -0.0367008 	0.00582075 	7.44753e-23 -0.0362833 	0.00595338 	4.74712e-23 -0.0358897 	0.00610937 	2.9782e-23 -0.0355385 	0.00632892 	4.1693e-23 -0.0348874 	0.00675955 	7.39011e-23 -0.0342619 	0.00721642 	1.06365e-22 -0.0338189 	0.00734727 	5.79047e-23 -0.0333936 	0.00748487 	9.24495e-24 -0.0327355 	0.00779974 	4.19441e-26 -0.0321242 	0.00826456 	1.64959e-23 -0.0315461 	0.00875779 	3.27965e-23 -0.0311106 	0.00890623 	5.03565e-24 -0.0304652 	0.00922857 	0 -0.0298056 	0.00960626 	0 -0.0291883 	0.0100058 	0 -0.0286318 	0.0104159 	0 -0.0286246 	0.0104225 	0 -0.0286173 	0.010429 	0 -0.0286101 	0.0104356 	0 -0.0286015 	0.0104429 	0 -0.0285903 	0.0104516 	0 -0.027931 	0.010847 	0 -0.0273181 	0.0112723 	0 -0.02675 	0.0117256 	0 -0.0261293 	0.0122558 	0 -0.0253495 	0.0129484 	0 -0.0247137 	0.013341 	0 -0.0241099 	0.0137762 	0 -0.0233685 	0.0143221 	0 -0.0226939 	0.014916 	0 -0.0219981 	0.0156558 	0 -0.0219979 	0.0156561 	0 -0.0219977 	0.0156563 	0 -0.0219974 	0.0156565 	0 -0.0219971 	0.0156567 	0 -0.0219969 	0.0156569 	0 -0.021235 	0.0162833 	0 -0.020541 	0.016973 	0 -0.0199026 	0.0177218 	1.45672e-26 -0.0191915 	0.018488 	1.7155e-25 -0.0183576 	0.0195834 	3.78397e-25 -0.0182654 	0.0197065 	3.79332e-25 -0.0181752 	0.0198316 	3.80431e-25 -0.0180816 	0.019949 	-5.63815e-24 -0.0179823 	0.0200552 	-2.00078e-23 -0.0178899 	0.0201578 	-3.36435e-23 -0.0171127 	0.0209951 	-2.8271e-23 -0.0164146 	0.0219223 	-1.94662e-23 -0.0157619 	0.022782 	-4.96539e-23 -0.0151918 	0.0236502 	-1.13195e-22 -0.0147949 	0.0245363 	-1.95863e-22 -0.0147011 	0.0247323 	-2.61292e-22 -0.0146089 	0.0249245 	-3.11755e-22 -0.0145158 	0.0250735 	-2.48435e-22 -0.0144244 	0.0252245 	-1.85542e-22 -0.0143253 	0.0253932 	-1.16602e-22 -0.0138758 	0.026111 	2.40881e-22 -0.0134686 	0.0268818 	5.86307e-22 -0.0131019 	0.0277027 	9.20038e-22 -0.0128618 	0.0282928 	6.3424e-22 -0.0126947 	0.0287716 	2.24586e-22 -0.0120497 	0.0298403 	-1.22881e-22 -0.0114586 	0.0309925 	-4.75051e-22 -0.0110841 	0.0316857 	-7.7677e-23 -0.0108514 	0.0324515 	6.70533e-22 -0.0107581 	0.0331958 	1.6366e-21 -0.0104127 	0.0340412 	2.28401e-21 -0.010177 	0.0346101 	2.04624e-21 -0.00997944 	0.0351113 	1.56009e-21 -0.00979144 	0.0356305 	1.08415e-21 -0.00953166 	0.0364101 	4.06661e-22 -0.00944219 	0.0367089 	3.04754e-22 -0.00935521 	0.0370126 	2.03104e-22 -0.00927067 	0.037321 	1.01709e-22 -0.00919179 	0.0376282 	2.85378e-24 -0.00925605 	0.0376812 	3.02252e-24 -0.00874846 	0.0386038 	-8.5324e-23 -0.00847824 	0.0395873 	-2.95528e-22 -0.0082299 	0.0406175 	-5.09657e-22 -0.00813337 	0.0414243 	-7.27186e-22 -0.00837159 	0.0415776 	-9.39435e-22 -0.00770023 	0.0427353 	-6.15554e-22 -0.0071081 	0.0439738 	-1.56841e-22 -0.00692963 	0.0451242 	1.24611e-21 -0.00722375 	0.0452861 	2.36496e-21 -0.00750121 	0.0454139 	3.44577e-21 -0.00682532 	0.0467991 	1.91818e-21 -0.00617624 	0.0482872 	4.11525e-22 -0.00601721 	0.0489146 	6.61189e-25 -0.00634055 	0.0490384 	3.62912e-24 -0.00664792 	0.0491231 	6.51653e-24 -0.00597247 	0.0507283 	2.69708e-24 -0.0054731 	0.0520402 	0 -0.00536605 	0.052433 	0 -0.00549805 	0.0526432 	-3.00187e-21 -0.00582483 	0.0526645 	-8.49053e-21 -0.00515535 	0.0544751 	-1.61762e-21 -0.00491809 	0.0552167 	0 -0.00481457 	0.0556347 	0 -0.00471369 	0.0560735 	0 -0.00504859 	0.0560123 	-1.07628e-23 -0.00448281 	0.0577229 	0 -0.0043815 	0.0581364 	0 -0.00428253 	0.058571 	0 -0.00418586 	0.0590263 	0 -0.0043323 	0.0591234 	2.53108e-21 -0.0039719 	0.0603476 	3.2925e-37 -0.00387802 	0.0607701 	9.63659e-37 -0.00378611 	0.0612129 	1.59696e-36 -0.00369615 	0.0616757 	2.22917e-36 -0.00369557 	0.0619855 	2.97463e-36 -0.00354399 	0.0625907 	3.23577e-36 -0.00349013 	0.0628651 	2.69247e-36 -0.00343694 	0.0631475 	2.15215e-36 -0.00338443 	0.0634378 	1.61477e-36 -0.00331461 	0.0638392 	8.94977e-37 -0.00329122 	0.0639812 	7.07616e-37 -0.00326796 	0.0641247 	5.20337e-37 -0.00324484 	0.0642697 	3.33139e-37 -0.00322186 	0.0644164 	1.4602e-37 -0.00322188 	0.0644065 	4.47847e-39 -0.00313726 	0.0649049 	-5.15396e-37 -0.00307488 	0.0653339 	-1.0817e-36 -0.00301368 	0.0657782 	-1.64879e-36 -0.00295362 	0.0662373 	-2.21666e-36 -0.00298479 	0.0660315 	-2.78461e-36 -0.00286408 	0.066843 	-2.16374e-36 -0.00283432 	0.0672793 	-1.54421e-36 -0.00280523 	0.067725 	-9.25087e-37 -0.00277679 	0.0681796 	-3.06365e-37 -0.00289309 	0.0674458 	0 -0.00274536 	0.0686047 	0 -0.00276899 	0.0690658 	0 -0.00279254 	0.0695259 	0 -0.00281603 	0.069985 	0 -0.00302798 	0.0686861 	0 -0.00284614 	0.0702466 	0 -0.00295598 	0.0707665 	0 -0.00306442 	0.0712682 	0 -0.00317151 	0.0717518 	0 -0.00350385 	0.0697591 	0 -0.00325074 	0.0718361 	0 -0.00349793 	0.0724739 	0 -0.00374091 	0.0730647 	0 -0.00400906 	0.0732057 	0 -0.00446865 	0.0705807 	0 -0.00423317 	0.0729872 	0 -0.00450406 	0.0742527 	0 -0.00495497 	0.0750145 	0 -0.00546632 	0.0741123 	0 -0.00606515 	0.0708121 	0 -0.00587946 	0.0738232 	0 -0.00603051 	0.0762353 	0 -0.00678961 	0.0773145 	0 -0.00755524 	0.0742161 	0 -0.00829129 	0.0696546 	0 -0.00822721 	0.0738867 	0 -0.00818396 	0.078298 	0 -0.00904086 	0.0785091 	0 -0.00987231 	0.0721531 	0 -0.010608 	0.0652469 	0 -0.0108154 	0.0720025 	0 -0.0110765 	0.0790988 	0 -0.0105066 	0.0753961 	0 -0.0109773 	0.0651192 	0 -0.0112512 	0.0540482 	0 -0.011973 	0.0662115 	0 -0.0114355 	0.0663752 	0 -0.00992819 	0.0576265 	0 -0.00842091 	0.0488777 	0 -0.00712322 	0.0309178 	0 -0.0078207 	0.0457383 	0 -0.00635293 	0.0371543 	0 -0.00488517 	0.0285703 	0 -0.00341741 	0.0199862 	0 0 	0 	0