# vtk DataFile Version 2.0
track0
ASCII
DATASET POLYDATA
POINTS 41194 float
0.05 8.57988e-20 2.57396e-18
0.05 0.00217391 -1.05592e-17
0.05 0.00217391 -1.05592e-17
0.05 0.00217391 -1.05592e-17
0.05 0.00217391 -1.05592e-17
0.05 0.00217391 -1.05592e-17
0.05 0.00217391 -1.38778e-17
0.0493333 0.00217508 -7.35523e-18
0.0486667 0.00217729 -8.53484e-18
0.048 0.00218106 -7.5047e-18
0.0473334 0.00218801 -9.88877e-18
0.0466667 0.00219752 -6.93889e-18
0.046 0.00220945 2.77556e-19
0.0453333 0.00222084 -2.63676e-18
0.0446667 0.00223283 5.24496e-18
0.0440001 0.00224785 -2.37357e-18
0.0433333 0.00226634 -6.93889e-18
0.0426667 0.00228868 -3.19189e-18
0.0419999 0.00230906 8.3225e-19
0.0413332 0.0023297 1.96788e-18
0.0406666 0.00235329 7.18321e-18
0.04 0.00238087 -6.93889e-18
0.0393333 0.0024136 -1.80411e-18
0.0386665 0.00244319 -5.75904e-18
0.0379997 0.00247353 -8.2324e-18
0.0373331 0.00250688 1.31907e-18
0.0366667 0.00254409 6.93889e-18
0.036 0.00258766 2.77556e-19
0.0353331 0.00262714 -4.02202e-18
0.0346663 0.00266891 4.35076e-19
0.0339997 0.00271388 -1.65604e-18
0.0333333 0.00276216 -6.93889e-18
0.0326667 0.00281759 -1.48492e-17
0.0319998 0.00286994 -1.33917e-17
0.0313331 0.00292571 -1.92754e-17
0.0306668 0.00298504 -1.92455e-17
0.03 0.00304816 -1.80411e-17
0.0294501 0.00310519 -1.43497e-17
0.0289001 0.00316193 -1.55155e-17
0.0283504 0.00322135 -2.1062e-17
0.027801 0.00328353 -2.8725e-17
0.0273806 0.00333333 -2.87477e-17
0.0272378 0.00335084 -3.04922e-17
0.0270951 0.00336856 -2.52977e-17
0.0269523 0.00338648 -3.12053e-17
0.0268096 0.00340461 -2.18474e-17
0.0266667 0.00342298 -2.89194e-17
0.026 0.00351159 -2.73103e-17
0.0253338 0.00360341 -2.70809e-17
0.0246682 0.00370004 -3.69175e-17
0.0240034 0.00380169 -4.13615e-17
0.0233333 0.00390952 -4.53685e-17
0.0226667 0.00403584 -4.28033e-17
0.0219994 0.00415893 -4.64777e-17
0.0213331 0.00428732 -4.59334e-17
0.0206681 0.00442184 -4.47653e-17
0.02 0.00457358 -3.87603e-17
0.0193333 0.00475257 -4.26305e-17
0.0186665 0.00493094 -4.70148e-17
0.0179995 0.0051086 -4.42244e-17
0.0173359 0.00529889 -4.19276e-17
0.0166667 0.00552033 -3.19189e-17
0.0160618 0.00574959 -2.90201e-17
0.0154577 0.00598109 -3.25103e-17
0.0148579 0.00622337 -2.62931e-17
0.014265 0.00648229 -3.51735e-17
0.013875 0.00666667 -3.55966e-17
0.0137667 0.00672067 -4.09673e-17
0.0136587 0.00677541 -4.49508e-17
0.0135512 0.00683092 -4.33839e-17
0.013444 0.00688718 -4.30984e-17
0.0133333 0.00694655 -4.76506e-17
0.0126667 0.0073135 -4.54861e-17
0.0120123 0.00770204 -4.47454e-17
0.0113733 0.00811522 -4.5551e-17
0.0107515 0.00855394 -4.02149e-17
0.01 0.00914461 -4.30211e-17
0.0098092 0.00931569 -3.9769e-17
0.00962006 0.00948859 -4.76232e-17
0.00943259 0.00966331 -3.47241e-17
0.00924686 0.00983987 -3.31064e-17
0.00908174 0.01 -3.05311e-17
0.00859873 0.0104769 -3.35032e-17
0.00813885 0.0109761 -3.96906e-17
0.0077036 0.0114969 -4.71123e-17
0.00729202 0.0120367 -4.50251e-17
0.00666667 0.0129286 -4.30211e-17
0.00661695 0.0130095 -4.58795e-17
0.00656753 0.0130907 -5.01251e-17
0.00651841 0.013172 -5.15947e-17
0.00646959 0.0132535 -5.5183e-17
0.00642191 0.0133333 -5.55112e-17
0.0060248 0.014 -5.17641e-17
0.005664 0.014687 -5.32552e-17
0.00533383 0.0153892 -5.22486e-17
0.00503043 0.0161034 -6.07694e-17
0.00479365 0.0166667 -4.64856e-17
0.00451548 0.0173333 -5.08234e-17
0.00427675 0.0180151 -4.5219e-17
0.00406412 0.0187055 -5.02092e-17
0.00386231 0.0193991 -5.50581e-17
0.00369711 0.02 -4.94316e-17
0.00362435 0.0202614 -5.28679e-17
0.00355741 0.0205244 -5.53579e-17
0.00349235 0.0207879 -4.89128e-17
0.00342876 0.0210517 -4.83675e-17
0.00333333 0.0214574 -4.66551e-17
0.00324832 0.0218326 -4.17749e-17
0.00316589 0.0222084 -4.19122e-17
0.00308595 0.0225847 -3.7882e-17
0.0030084 0.0229615 -3.52356e-17
0.00293424 0.0233333 -3.19189e-17
0.00279688 0.024 -2.88658e-17
0.00267489 0.0246696 -2.75524e-17
0.0025606 0.0253407 -2.37436e-17
0.00245339 0.0260128 -2.23209e-17
0.00235055 0.0266667 -2.35922e-17
0.00223455 0.0273333 -1.91513e-17
0.00213737 0.028003 -1.74785e-17
0.00205569 0.0286747 -1.77402e-17
0.0019797 0.0293471 -2.41135e-17
0.00189475 0.03 -3.19189e-17
0.00179531 0.0306667 -3.30291e-17
0.0017159 0.031336 -2.85927e-17
0.0016555 0.0320073 -2.82477e-17
0.00159719 0.0326789 -3.52062e-17
0.00152673 0.0333333 -3.52045e-17
0.00144066 0.034 -2.35891e-17
0.001376 0.0346691 -2.03409e-17
0.00133106 0.0353398 -1.84841e-17
0.00128706 0.0360105 -1.76843e-17
0.00122904 0.0366667 -2.00879e-17
0.0011541 0.0373333 -2.0657e-17
0.00110214 0.0380022 -1.40096e-17
0.00106424 0.038672 -1.37479e-17
0.00102635 0.0393418 -1.56934e-17
0.00097944 0.04 -2.106e-17
0.00091402 0.0406667 -1.67877e-17
0.000873497 0.0413353 -1.62312e-17
0.000840727 0.0420044 -1.75627e-17
0.000807958 0.0426734 -1.18965e-17
0.000771334 0.0433333 -9.6112e-18
0.000714205 0.044 -1.18939e-18
0.000684256 0.0446684 -9.97785e-19
0.000655941 0.045337 -2.29586e-18
0.000627626 0.0460055 3.87669e-18
0.00059962 0.0466667 -5.1619e-18
0.000549775 0.0473333 -3.7952e-18
0.000525353 0.0480014 -2.12153e-18
0.000500931 0.0486695 -7.49872e-18
0.000476508 0.0493376 -9.99907e-18
0.000452293 0.05 -1.18554e-17
0.000408829 0.0506667 -1.5877e-17
0.000387774 0.0513344 -1.16074e-17
0.000366719 0.0520022 -1.02732e-17
0.000345664 0.0526699 -6.52797e-18
0.000324746 0.0533333 -3.31637e-18
0.000286757 0.054 -3.53066e-18
0.000268509 0.0546675 -1.21031e-17
0.000250261 0.055335 -1.20071e-17
0.000232013 0.0560025 -1.13839e-17
0.000213856 0.0566667 -2.25606e-17
0.000180324 0.0573333 -1.2027e-17
0.00016421 0.0580006 -1.88686e-17
0.000148095 0.058668 -5.76144e-18
0.000131981 0.0593353 -6.5258e-18
0.000115929 0.06 -8.51973e-18
9.27433e-05 0.0605096 -3.12227e-18
8.13741e-05 0.0610195 1.74523e-19
7.00048e-05 0.0615295 -3.4508e-19
5.86356e-05 0.0620394 4.23648e-18
2.97881e-05 0.0633333 8.27707e-18
2.38305e-05 0.0634712 9.03697e-18
2.07477e-05 0.0636091 7.88404e-18
1.76649e-05 0.0637471 3.78209e-18
1.45821e-05 0.063885 8.94439e-19
0 0.0645375 -7.70212e-19
0.05 0.00434783 5.94331e-18
0.0493333 0.00434881 2.47222e-18
0.0486667 0.00435285 -1.69784e-18
0.048 0.00435927 5.55042e-19
0.0473334 0.00436736 6.85664e-18
0.0466667 0.00437837 4.50467e-18
0.046 0.00439339 7.94911e-18
0.0453334 0.00441006 1.06969e-17
0.0446668 0.00442837 9.92343e-18
0.0440003 0.0044483 9.33414e-18
0.0433333 0.00447214 3.42261e-18
0.0426667 0.00450119 6.73866e-18
0.042 0.00453069 1.00577e-17
0.0413334 0.00456088 8.53472e-18
0.0406669 0.00459272 3.14494e-18
0.04 0.00463016 3.04452e-18
0.0393333 0.0046741 -1.19199e-18
0.0386666 0.00471749 -1.95815e-18
0.0379999 0.00476034 -2.79286e-18
0.0373333 0.00480547 2.03531e-18
0.0366667 0.00485817 7.14178e-18
0.036 0.00491877 -2.29142e-19
0.0353332 0.00497809 -3.44566e-18
0.0346663 0.00503611 -4.48656e-18
0.0339998 0.00509784 -3.77182e-18
0.0333333 0.00516855 -6.93889e-18
0.0326667 0.00524869 -8.74301e-18
0.0319998 0.00532714 -9.50578e-18
0.0313327 0.00540385 -1.2231e-17
0.0306664 0.00548658 -8.44311e-18
0.03 0.00557945 -1.249e-17
0.0293333 0.00568347 -1.29063e-17
0.0286664 0.00578572 -1.26977e-17
0.028 0.00589137 -1.43363e-17
0.0273348 0.00600433 -1.29032e-17
0.0266667 0.00612578 -1.38778e-17
0.0261292 0.00623396 -1.57583e-17
0.0255918 0.00634224 -1.55573e-17
0.0250555 0.00645595 -5.9038e-18
0.0245205 0.00657533 -5.11401e-18
0.0241314 0.00666667 -4.10467e-18
0.0239718 0.00670556 -8.69607e-18
0.0238123 0.00674502 -3.57326e-18
0.023653 0.00678508 -3.30792e-18
0.0234938 0.00682572 1.12051e-18
0.0233333 0.00686735 -3.34203e-19
0.0226667 0.00704517 7.57447e-19
0.0220025 0.00723213 -2.32946e-18
0.0213415 0.0074299 -8.09815e-18
0.020684 0.00763898 -3.33617e-18
0.02 0.00787324 -1.43332e-17
0.0193333 0.00812681 -1.12712e-17
0.0186708 0.0083909 -1.33159e-17
0.0180127 0.00866612 -1.53428e-17
0.0173621 0.00895845 -1.49188e-17
0.0166667 0.00929958 -1.80411e-17
0.0164065 0.00943966 -1.29234e-17
0.0161473 0.00958174 -1.71762e-17
0.0158894 0.00972608 -1.88284e-17
0.0156332 0.00987339 -1.84018e-17
0.0154189 0.01 -2.498e-17
0.0150018 0.0102521 -3.0951e-17
0.0145908 0.0105141 -2.74211e-17
0.0141862 0.0107859 -3.47271e-17
0.0137885 0.0110677 -2.88172e-17
0.0133333 0.0114102 -3.21857e-17
0.0128573 0.0117948 -2.4385e-17
0.0123915 0.0121919 -2.44668e-17
0.0119365 0.0126012 -2.85518e-17
0.011493 0.013023 -3.27249e-17
0.0111847 0.0133333 -3.54293e-17
0.0109477 0.0135815 -3.2368e-17
0.0107162 0.0138347 -3.28301e-17
0.0104901 0.0140927 -2.86949e-17
0.0102694 0.0143554 -3.69105e-17
0.01 0.0146896 -3.85315e-17
0.009697 0.015085 -3.65868e-17
0.00940318 0.0154873 -3.84639e-17
0.00911849 0.0158961 -3.6002e-17
0.00884246 0.0163108 -3.48485e-17
0.00861374 0.0166667 -2.91434e-17
0.00822433 0.0172906 -3.25382e-17
0.00786266 0.017931 -4.14572e-17
0.00752749 0.0185857 -3.71865e-17
0.00721089 0.0192496 -3.93445e-17
0.00687723 0.02 -3.27807e-17
0.00683512 0.0201013 -3.56615e-17
0.00679366 0.0202028 -3.58692e-17
0.00675273 0.0203046 -3.65857e-17
0.00671222 0.0204065 -3.37464e-17
0.00666667 0.0205226 -3.20013e-17
0.00644897 0.0210847 -3.82298e-17
0.00624272 0.0216512 -3.68474e-17
0.00604728 0.0222214 -2.73993e-17
0.005862 0.0227951 -3.26605e-17
0.00569414 0.0233333 -3.05311e-17
0.00548484 0.024 -3.23352e-17
0.00529798 0.0246733 -3.13748e-17
0.00513245 0.0253522 -2.84966e-17
0.00497478 0.0260329 -2.53836e-17
0.00482412 0.0266667 -2.87153e-17
0.00466206 0.0273333 -3.38039e-17
0.00452096 0.0280047 -3.7046e-17
0.00439656 0.0286795 -3.56178e-17
0.00427634 0.0293549 -3.24636e-17
0.0041605 0.03 -3.67659e-17
0.00403562 0.0306667 -3.30885e-17
0.00392991 0.0313366 -3.27681e-17
0.0038286 0.0320073 -3.38739e-17
0.00373091 0.0326785 -2.94406e-17
0.00363908 0.0333333 -3.24281e-17
0.00357793 0.033761 -3.47365e-17
0.00352188 0.0341894 -3.77461e-17
0.00346722 0.034618 -2.72269e-17
0.0034139 0.0350468 -2.94815e-17
0.00333333 0.0357112 -2.91434e-17
0.00331105 0.0359023 -3.61194e-17
0.00328902 0.0360934 -3.33805e-17
0.00326722 0.0362846 -3.34168e-17
0.00324565 0.0364757 -3.34527e-17
0.00322435 0.0366667 -3.747e-17
0.00314941 0.0373333 -4.6213e-17
0.00307859 0.0380005 -3.96912e-17
[...]
POINT_DATA 41194
 FIELD attributes 1
U 3 41194 float
-6.40104e-19 	-1.66223e-21 	0
-0.0151114 	2.64387e-05 	0 -0.0151114 	2.64387e-05 	0 -0.0151114 	2.64387e-05 	0 -0.0151114 	2.64387e-05 	0 -0.0151114 	2.64387e-05 	0 -0.0151114 	2.64387e-05 	0 -0.0154439 	5.11106e-05 	0 -0.0156804 	8.88416e-05 	-4.12368e-25 -0.0156405 	0.000162883 	-1.97182e-24 -0.0153878 	0.000219491 	-3.53859e-24 -0.0150647 	0.000269723 	-5.11151e-24 -0.0153884 	0.000262764 	2.0007e-22 -0.0155703 	0.000280206 	3.37154e-22 -0.0154704 	0.000348448 	3.33055e-22 -0.0152374 	0.00042268 	1.99117e-22 -0.0149427 	0.000500636 	-6.53329e-24 -0.015244 	0.000465948 	4.39767e-23 -0.015335 	0.000474786 	7.08864e-23 -0.0151861 	0.000537474 	6.89044e-23 -0.0149825 	0.000619855 	4.29098e-23 -0.0147274 	0.00072303 	-8.0985e-24 -0.0149955 	0.000665455 	-5.94217e-24 -0.0149661 	0.000681058 	-2.21623e-23 -0.0147821 	0.000739338 	-4.8911e-23 -0.0145991 	0.000815226 	-7.63332e-23 -0.0143915 	0.000940442 	-1.05518e-22 -0.0146187 	0.000865436 	-7.96741e-23 -0.0144494 	0.00090525 	-7.6898e-23 -0.0142449 	0.000960985 	-7.72302e-23 -0.0140566 	0.00101848 	-7.78142e-23 -0.0139018 	0.00115587 	-1.02349e-22 -0.0140005 	0.0010989 	-1.8411e-22 -0.013774 	0.00115227 	-1.48192e-22 -0.0135631 	0.00120774 	-1.11703e-22 -0.0133683 	0.00126538 	-7.46211e-23 -0.0132322 	0.00137235 	1.05773e-23 -0.0131863 	0.00136051 	-4.58276e-23 -0.0130026 	0.00140543 	-3.26354e-23 -0.0128293 	0.00145208 	-1.87809e-23 -0.012667 	0.00150053 	-4.24033e-24 -0.0125513 	0.00153905 	7.43645e-24 -0.0125148 	0.00155282 	1.16269e-23 -0.0124791 	0.00156672 	1.58691e-23 -0.0124442 	0.00158077 	2.01634e-23 -0.0124102 	0.00159495 	2.45102e-23 -0.0123399 	0.00164017 	9.02694e-24 -0.0121031 	0.00166805 	6.71003e-24 -0.0119011 	0.00172802 	7.62584e-24 -0.011715 	0.00179126 	8.51131e-24 -0.0115456 	0.0018579 	9.36513e-24 -0.0111899 	0.00212027 	5.07504e-23 -0.0108427 	0.00200007 	3.75799e-22 -0.0106555 	0.00205336 	4.61193e-22 -0.0104944 	0.00212266 	5.32523e-22 -0.0102323 	0.00232398 	4.33568e-22 -0.00990003 	0.00265812 	1.78993e-22 -0.00959567 	0.0025666 	4.42083e-22 -0.0092897 	0.00247439 	7.05157e-22 -0.00897924 	0.00257505 	7.1922e-22 -0.00871292 	0.00288278 	4.88108e-22 -0.00849329 	0.00321902 	2.58168e-22 -0.00827147 	0.0031698 	4.60392e-22 -0.00799125 	0.0032278 	4.95781e-22 -0.00769485 	0.00336089 	4.29505e-22 -0.00743189 	0.00351339 	3.59887e-22 -0.00728051 	0.00362882 	3.11124e-22 -0.00723333 	0.0036681 	2.97399e-22 -0.0071876 	0.00370833 	2.83531e-22 -0.00714333 	0.0037495 	2.69518e-22 -0.00708569 	0.00380244 	2.67934e-22 -0.00702033 	0.00386414 	2.72509e-22 -0.00661947 	0.00393072 	1.81005e-22 -0.00635412 	0.00410839 	9.78692e-23 -0.00611838 	0.00431698 	1.91209e-23 -0.00585027 	0.00459811 	2.59648e-23 -0.00557346 	0.00499743 	3.19782e-23 -0.00551211 	0.0050388 	1.84497e-23 -0.00545387 	0.00508306 	4.91481e-24 -0.0053978 	0.00513122 	2.9857e-23 -0.00534439 	0.0051829 	7.67408e-23 -0.00529937 	0.00523198 	1.18829e-22 -0.00499453 	0.0054219 	1.19624e-22 -0.0047224 	0.00565106 	1.14532e-22 -0.00449001 	0.00588792 	1.03508e-22 -0.00429568 	0.00612677 	8.7033e-23 -0.00403012 	0.00656159 	5.27091e-23 -0.00401353 	0.00658945 	8.72757e-23 -0.00399733 	0.00661783 	1.21545e-22 -0.00398151 	0.0066467 	1.55519e-22 -0.00398175 	0.00666796 	8.30341e-23 -0.00398384 	0.00668808 	3.91553e-25 -0.00360169 	0.00685784 	-6.68543e-22 -0.00339125 	0.00721297 	-1.10571e-21 -0.00323954 	0.00762583 	-1.48196e-21 -0.00332917 	0.00791914 	-1.17453e-21 -0.00340266 	0.00815477 	-9.31714e-22 -0.00298036 	0.00851157 	-6.12806e-22 -0.00271685 	0.00882126 	-3.59127e-22 -0.00262479 	0.00902149 	-1.94387e-22 -0.00254231 	0.00924713 	-2.47979e-23 -0.00267296 	0.00960498 	1.67141e-23 -0.00250709 	0.00984859 	1.35925e-24 -0.00245874 	0.00995605 	0 -0.00242318 	0.0100546 	0 -0.00238916 	0.0101579 	0 -0.00233922 	0.0103237 	0 -0.00229739 	0.0104721 	0 -0.0022582 	0.0106293 	0 -0.00222157 	0.0107948 	0 -0.00218739 	0.0109684 	0 -0.00224933 	0.0109169 	0 -0.0020064 	0.0110139 	0 -0.00193431 	0.0113562 	0 -0.00187122 	0.0117323 	0 -0.00187998 	0.0119528 	0 -0.00204114 	0.0117305 	0 -0.00172399 	0.0118797 	0 -0.00147993 	0.0121709 	0 -0.00143357 	0.0126855 	0 -0.00162204 	0.0124659 	0 -0.00180937 	0.0121308 	0 -0.00147226 	0.0124089 	0 -0.0011533 	0.0128188 	0 -0.00112207 	0.0129225 	0 -0.00135276 	0.012566 	0 -0.00156363 	0.0121105 	0 -0.00121119 	0.0125331 	0 -0.000879717 	0.0131297 	0 -0.000837415 	0.0127653 	0 -0.00108946 	0.0123203 	0 -0.00131993 	0.0117419 	0 -0.000957106 	0.012321 	0 -0.000716879 	0.0126706 	0 -0.00069223 	0.0122349 	0 -0.000834067 	0.0117038 	0 -0.00108003 	0.0110061 	0 -0.00071207 	0.0117492 	0 -0.000575607 	0.0117524 	0 -0.000554013 	0.0113115 	0 -0.000599178 	0.0107961 	0 -0.000856055 	0.00998963 	0 -0.000488338 	0.0108995 	0 -0.000447071 	0.0105552 	0 -0.000428571 	0.0101184 	0 -0.00041007 	0.00968161 	0 -0.000657443 	0.00879314 	0 -0.000349144 	0.00955103 	0 -0.000333634 	0.00912675 	0 -0.000318124 	0.00870247 	0 -0.000302615 	0.0082782 	0 -0.000482086 	0.00739439 	0 -0.000248314 	0.00787521 	0 -0.000235526 	0.00746963 	0 -0.000222737 	0.00706405 	0 -0.000209949 	0.00665847 	0 -0.000332745 	0.00583927 	2.88701e-37 -0.000165213 	0.0060434 	0 -0.000154699 	0.00565883 	0 -0.000144186 	0.00527426 	0 -0.000133672 	0.00488968 	0 -0.000210291 	0.00418087 	2.91489e-40 -9.93067e-05 	0.0041124 	0 -9.04323e-05 	0.0037449 	0 -8.15579e-05 	0.0033774 	0 -7.26835e-05 	0.0030099 	0 -0.000111094 	0.0024415 	-1.02904e-37 -5.06138e-05 	0.00227022 	0 -4.44091e-05 	0.00199192 	0 -3.82045e-05 	0.00171362 	0 -3.19998e-05 	0.00143532 	0 -2.90208e-05 	0.000671488 	0 -1.39319e-05 	0.000623398 	0 -1.21296e-05 	0.000542753 	0 -1.03273e-05 	0.000462109 	0 -8.52508e-06 	0.000381464 	0 0 	0 	0
-0.029387 	4.34887e-05 	0 -0.0296067 	0.000179448 	0 -0.0297144 	0.000286118 	-7.29916e-25 -0.0296925 	0.000360451 	-2.26561e-24 -0.0295059 	0.000486916 	-1.86764e-23 -0.0291899 	0.000657612 	-4.76592e-23 -0.029321 	0.000733351 	-2.35738e-22 -0.0293794 	0.00080689 	-3.51851e-22 -0.0293217 	0.00087686 	-3.5806e-22 -0.0290432 	0.00103798 	-2.43106e-22 -0.0286642 	0.00124927 	-6.3484e-23 -0.028708 	0.0012703 	-8.10976e-23 -0.0287249 	0.00130116 	-9.54904e-23 -0.028637 	0.0013678 	-9.79846e-23 -0.0282443 	0.00158566 	-6.21655e-23 -0.0278262 	0.00183407 	-1.94954e-23 -0.0277907 	0.00180885 	-2.62153e-23 -0.0277521 	0.00178327 	-3.29321e-23 -0.0275984 	0.00186845 	-5.41282e-23 -0.0271272 	0.00214451 	-6.48585e-23 -0.0266949 	0.00242652 	-7.52771e-23 -0.0265922 	0.00236587 	-2.51037e-22 -0.026483 	0.00230421 	-4.26881e-22 -0.0261802 	0.00242429 	-4.13054e-22 -0.0257155 	0.00272849 	-2.09915e-22 -0.0252927 	0.00304069 	-6.24297e-24 -0.0251381 	0.00295715 	1.49735e-22 -0.0249754 	0.00287204 	3.05651e-22 -0.0244617 	0.00303714 	3.18423e-22 -0.0240216 	0.00334775 	2.33801e-22 -0.0236296 	0.00368675 	1.36752e-22 -0.0234392 	0.00359372 	2.7247e-22 -0.0230542 	0.00365481 	3.07701e-22 -0.0225516 	0.00382936 	2.72148e-22 -0.0220773 	0.00401347 	2.35412e-22 -0.0217328 	0.00437445 	9.09252e-23 -0.021527 	0.0043375 	8.32548e-23 -0.0211318 	0.00448052 	1.13666e-22 -0.0207551 	0.00463083 	1.44583e-22 -0.0203978 	0.00478877 	1.76026e-22 -0.0201522 	0.0049097 	1.99344e-22 -0.020056 	0.00496354 	2.01223e-22 -0.0199618 	0.00501819 	2.03038e-22 -0.0198696 	0.00507366 	2.04789e-22 -0.0197795 	0.00512997 	2.06474e-22 -0.019625 	0.00523456 	2.1457e-22 -0.0191247 	0.0053835 	1.94492e-22 -0.0187062 	0.00559679 	1.98735e-22 -0.0183193 	0.00582523 	2.00622e-22 -0.0178885 	0.00612687 	2.19786e-22 -0.0173175 	0.00658673 	2.7872e-22 -0.0168324 	0.00670918 	1.5812e-22 -0.0163776 	0.00684996 	3.66777e-23 -0.0158231 	0.0071098 	0 -0.0153738 	0.00754076 	3.95982e-23 -0.0149472 	0.00804666 	8.01431e-23 -0.0148046 	0.00811729 	3.43402e-23 -0.0146533 	0.00820131 	0 -0.0144671 	0.00831884 	0 -0.0142883 	0.00844168 	0 -0.0141442 	0.00854968 	0 -0.0138187 	0.00880654 	0 -0.0135166 	0.00908258 	0 -0.0132386 	0.00937812 	0 -0.0129 	0.00970744 	0 -0.0125267 	0.0101207 	0 -0.0121789 	0.0103813 	0 -0.0118642 	0.010672 	0 -0.0115354 	0.0109731 	0 -0.0112276 	0.0112996 	0 -0.0110335 	0.0115555 	0 -0.0108128 	0.011824 	0 -0.0106059 	0.0121069 	0 -0.0103965 	0.0123753 	-1.76702e-23 -0.0101875 	0.0126345 	-4.93899e-23 -0.00994262 	0.0129753 	-8.89974e-23 -0.00969375 	0.0132721 	-9.50621e-23 -0.00946696 	0.0135941 	-1.02179e-22 -0.00926697 	0.0139227 	-1.32035e-22 -0.00911389 	0.0141813 	-2.76339e-22 -0.00899706 	0.0144157 	-3.99118e-22 -0.008481 	0.0150177 	-6.18392e-22 -0.00802506 	0.0156754 	-8.03501e-22 -0.00770056 	0.016147 	-5.17308e-22 -0.00741099 	0.0166675 	-2.35986e-22 -0.00721755 	0.0173578 	1.31296e-22 -0.00714868 	0.017509 	2.27939e-22 -0.00709125 	0.0176308 	2.5722e-22 -0.00704382 	0.0177264 	2.271e-22 -0.0069973 	0.0178235 	1.97319e-22 -0.00694545 	0.0179353 	1.63851e-22 -0.00670794 	0.0184227 	1.50898e-22 -0.00649443 	0.0189505 	1.39319e-22 -0.00630352 	0.0195159 	1.29033e-22 -0.00623125 	0.0199806 	1.32199e-22 -0.00634215 	0.0202011 	1.56798e-22 -0.0057808 	0.0208289 	9.86189e-23 -0.00525319 	0.021544 	4.14892e-23 -0.00516522 	0.022301 	1.74482e-22 -0.00538623 	0.0226583 	3.6281e-22 -0.00558502 	0.0229745 	5.36757e-22 -0.00501097 	0.0238445 	2.38373e-22 -0.00454932 	0.0246753 	0 -0.00444654 	0.0249835 	0 -0.00455212 	0.0253492 	2.94633e-25 -0.00481824 	0.0257217 	8.17995e-25 -0.00423693 	0.0268527 	3.52261e-26 -0.00411436 	0.0272367 	0 -0.00401836 	0.0276089 	0 -0.00392749 	0.0280052 	0 -0.00406084 	0.0284037 	-1.23837e-22 -0.00379983 	0.0290467 	0 -0.00373761 	0.0293032 	0 -0.00367745 	0.0295707 	0 -0.0036193 	0.0298491 	0 -0.00353228 	0.0302965 	0 -0.00350903 	0.0304304 	0 -0.00348614 	0.0305663 	0 -0.0034636 	0.0307041 	0 -0.00344141 	0.0308438 	0 -0.0034628 	0.0308045 	0 -0.0033183 	0.0312585 	0 -0.00322939 	0.0317232 	0 -0.00314488 	0.0322153 	0 -0.0030646 	0.0327334 	0 -0.00317937 	0.0323994 	0 -0.00287957 	0.0330664 	0 -0.00279404 	0.0335865 	0 -0.00271253 	0.0341346 	0 -0.00264294 	0.0346692 	0 -0.00288614 	0.0336794 	0 -0.00251842 	0.0345893 	0 -0.00237939 	0.0352343 	0 -0.00230044 	0.0358286 	0 -0.00234473 	0.0358005 	0 -0.00259125 	0.0346573 	0 -0.00222902 	0.0357317 	0 -0.00199291 	0.0366493 	0 -0.00191707 	0.0372784 	0 -0.00206008 	0.0366675 	0 -0.00230646 	0.0353772 	0 -0.00195447 	0.0366094 	0 -0.00164623 	0.0378619 	7.58372e-38 -0.00157566 	0.0385142 	6.43406e-37 -0.00180118 	0.0373266 	1.21256e-36 -0.00204562 	0.0358981 	1.77485e-36 -0.0017077 	0.0372777 	1.14841e-36 -0.00137722 	0.038792 	5.28229e-37 -0.00132997 	0.0392589 	7.79526e-40 -0.00157948 	0.0377991 	1.65834e-39 -0.0018229 	0.0362418 	2.52677e-39 -0.00150152 	0.0377567 	1.57239e-39 -0.00118689 	0.0394097 	6.2713e-40 -0.00115659 	0.0396794 	-3.91612e-37 -0.0014099 	0.0381053 	-9.66607e-37 -0.00165746 	0.0364258 	-1.53526e-36 -0.00135336 	0.0380658 	-9.16575e-37 -0.00105549 	0.0398462 	-3.03528e-37 -0.00104415 	0.0399526 	0 -0.00131303 	0.0382678 	0 -0.00157594 	0.0364644 	0 -0.00128813 	0.0382266 	0 -0.00100639 	0.0401326 	0 -0.001011 	0.0400818 	0 -0.00131614 	0.0382772 	0 -0.00161408 	0.0363299 	0 -0.00134063 	0.0382291 	0 -0.00107375 	0.0402793 	0 -0.00107985 	0.040026 	0 -0.00145369 	0.0380666 	0 -0.00181698 	0.0359195 	0 -0.00155759 	0.0380078 	0 -0.00130644 	0.0402618 	0 -0.00128493 	0.0396131 	0 -0.00175749 	0.0374517 	0 -0.00222714 	0.0349814 	0 -0.00198923 	0.0373877 	0 -0.00180054 	0.0391742 	0 -0.00175383 	0.0381578 	0 -0.00220568 	0.0359102 	0 -0.00282607 	0.032871 	0 -0.00263744 	0.0358837 	0 -0.0024913 	0.0365812 	0 -0.00237496 	0.034873 	0 -0.00259121 	0.0324299 	0 -0.00338555 	0.0283807 	0 -0.00331807 	0.0326163 	0 -0.00304675 	0.0304533 	0 -0.00274823 	0.0274695 	0 -0.00244971 	0.0244857 	0 -0.00311374 	0.0191336 	0 -0.00301432 	0.0217096 	0 -0.0023691 	0.0170626 	0 -0.00172387 	0.0124156 	0 -0.00107865 	0.0077686 	0 -5.14861e-05 	0.000247274 	0 -5.42524e-05 	0.000314971 	0 -4.2958e-05 	0.0002494 	0 -3.16636e-05 	0.000183828 	0 -2.03692e-05 	0.000118257 	0 0 	0 	0
-0.0427073 	4.98087e-05 	0 -0.0426759 	0.000259707 	-2.11682e-23 -0.0425938 	0.000490583 	-4.83402e-23 -0.0425321 	0.000721971 	-7.56575e-23 -0.042491 	0.000953867 	-1.0312e-22 -0.0424262 	0.00117647 	-1.30988e-22 -0.0422794 	0.00137031 	-1.61949e-22 -0.0420952 	0.001587 	-1.63358e-22 -0.0419306 	0.0018052 	-1.63945e-22 -0.0417858 	0.00202492 	-1.63699e-22 -0.0417385 	0.00210874 	-1.63287e-22 -0.0417251 	0.00213655 	-1.6371e-22 -0.0417121 	0.00216439 	-1.64128e-22 -0.0416993 	0.00219226 	-1.64541e-22 -0.0416869 	0.00222015 	-1.64948e-22 -0.041665 	0.00225284 	-1.66223e-22 -0.0413899 	0.00245846 	-1.36856e-22 -0.0411301 	0.0026656 	-1.07494e-22 -0.0408906 	0.00287539 	-7.79257e-23 -0.0406717 	0.00308786 	-4.81487e-23 -0.0403606 	0.00336188 	-2.37447e-23 -0.0400493 	0.00355623 	-1.64179e-23 -0.0397288 	0.00375791 	-8.15272e-24 -0.0394287 	0.00396327 	2.33587e-25 -0.0391494 	0.00417238 	8.74344e-24 -0.038629 	0.00453048 	2.07816e-23 -0.038271 	0.00468535 	1.95047e-22 -0.037913 	0.00488827 	2.35977e-22 -0.037576 	0.00509606 	2.78092e-22 -0.0371608 	0.00536785 	2.56338e-22 -0.036524 	0.00579438 	7.49618e-23 -0.0361084 	0.00592623 	4.74276e-23 -0.0357166 	0.00608122 	2.92355e-23 -0.0353669 	0.00629967 	4.10181e-23 -0.0347182 	0.00672843 	7.28037e-23 -0.0340953 	0.00718304 	1.04812e-22 -0.0336545 	0.00731322 	5.70271e-23 -0.0332313 	0.00745011 	9.04598e-24 -0.0325756 	0.00776344 	2.50095e-27 -0.0319669 	0.00822595 	1.62541e-23 -0.0313912 	0.00871672 	3.23542e-23 -0.0309579 	0.00886449 	4.93138e-24 -0.030315 	0.00918555 	0 -0.0296585 	0.00956138 	0 -0.0290439 	0.00995893 	0 -0.0284939 	0.0103641 	0 -0.0284859 	0.0103713 	0 -0.028478 	0.0103785 	0 -0.0284701 	0.0103857 	0 -0.0284607 	0.0103937 	0 -0.0284484 	0.0104032 	0 -0.0277919 	0.0107964 	0 -0.0271817 	0.0112197 	0 -0.0266162 	0.0116708 	0 -0.0259978 	0.0121987 	0 -0.0252217 	0.0128879 	0 -0.024589 	0.0132787 	0 -0.0239875 	0.0137121 	0 -0.0232497 	0.0142555 	0 -0.0225784 	0.0148466 	0 -0.0218883 	0.0155798 	0 -0.0218878 	0.0155806 	0 -0.0218872 	0.0155813 	0 -0.0218867 	0.0155821 	0 -0.0218859 	0.0155828 	0 -0.0218852 	0.0155836 	0 -0.021126 	0.0162068 	0 -0.020435 	0.0168936 	0 -0.019799 	0.0176391 	9.07686e-26 -0.0190913 	0.0184018 	1.04625e-24 -0.0182613 	0.0194928 	2.30561e-24 -0.0181703 	0.0196142 	2.3113e-24 -0.0180814 	0.0197376 	2.31797e-24 -0.0179891 	0.0198535 	-3.46409e-24 -0.0178912 	0.0199582 	-1.73027e-23 -0.0178001 	0.0200594 	-3.04403e-23 -0.0170253 	0.0208935 	-2.24914e-23 -0.0163296 	0.0218172 	-1.1064e-23 -0.0156795 	0.0226736 	-4.51462e-23 -0.0151141 	0.02354 	-1.17573e-22 -0.0147226 	0.0244148 	-2.07329e-22 -0.0146279 	0.0246126 	-2.74993e-22 -0.0145349 	0.0248066 	-3.27243e-22 -0.014441 	0.024957 	-2.62196e-22 -0.0143488 	0.0251094 	-1.97593e-22 -0.0142488 	0.02528 	-1.26687e-22 -0.0138037 	0.0259922 	2.23248e-22 -0.0134004 	0.0267567 	5.61552e-22 -0.0130372 	0.0275706 	8.8857e-22 -0.0127993 	0.0281559 	6.14708e-22 -0.0126337 	0.0286307 	2.19253e-22 -0.0119922 	0.029693 	-1.13443e-22 -0.0114043 	0.0308382 	-4.50656e-22 -0.0110313 	0.0315298 	-5.82536e-23 -0.0108024 	0.0322917 	6.91672e-22 -0.0107099 	0.0330317 	1.65003e-21 -0.0103642 	0.0338774 	2.30089e-21 -0.0101285 	0.0344469 	2.06076e-21 -0.00993104 	0.0349487 	1.57002e-21 -0.00974324 	0.0354685 	1.08959e-21 -0.00948334 	0.0362505 	4.04533e-22 -0.0093958 	0.0365438 	3.03177e-22 -0.00931067 	0.0368419 	2.02073e-22 -0.0092279 	0.0371445 	1.01218e-22 -0.0091506 	0.0374459 	2.851e-24 -0.00921377 	0.0374979 	3.01694e-24 -0.00871195 	0.0384151 	-8.70338e-23 -0.00844356 	0.0393929 	-2.97519e-22 -0.0081969 	0.0404173 	-5.11931e-22 -0.00809922 	0.0412238 	-7.29751e-22 -0.00833672 	0.0413765 	-9.42315e-22 -0.0076689 	0.0425275 	-6.17885e-22 -0.00708235 	0.0437582 	-1.52728e-22 -0.00690343 	0.044907 	1.24798e-21 -0.00719682 	0.0450689 	2.36284e-21 -0.00747359 	0.0451968 	3.43978e-21 -0.00680106 	0.0465743 	1.91712e-21 -0.00615522 	0.0480542 	4.15314e-22 -0.00599746 	0.0486817 	6.69874e-25 -0.00632026 	0.0488063 	3.61925e-24 -0.00662712 	0.0488919 	6.48848e-24 -0.00595478 	0.0504889 	2.69143e-24 -0.00545637 	0.051798 	0 -0.00535013 	0.0521893 	0 -0.00548374 	0.0523987 	-3.00706e-21 -0.00581029 	0.052422 	-8.47375e-21 -0.00514361 	0.0542241 	-1.6251e-21 -0.00490656 	0.0549657 	0 -0.00480383 	0.0553825 	0 -0.00470373 	0.05582 	0 -0.00503958 	0.0557611 	-1.07301e-23 -0.00447537 	0.0574668 	0 -0.00437483 	0.0578796 	0 -0.00427664 	0.0583134 	0 -0.00418073 	0.0587678 	0 -0.00432803 	0.0588666 	2.52255e-21 -0.0039689 	0.0600875 	3.28004e-37 -0.00387576 	0.0605098 	9.60149e-37 -0.0037846 	0.0609524 	1.59119e-36 -0.00369537 	0.0614148 	2.22115e-36 -0.00369519 	0.0617261 	2.96335e-36 -0.0035452 	0.0623265 	3.22381e-36 -0.00349226 	0.0625987 	2.68672e-36 -0.00343999 	0.0628786 	2.15255e-36 -0.00338838 	0.0631663 	1.62125e-36 -0.00331997 	0.0635628 	9.1179e-37 -0.00329624 	0.0637078 	7.20834e-37 -0.00327266 	0.0638545 	5.29963e-37 -0.00324921 	0.0640028 	3.39176e-37 -0.00322591 	0.0641527 	1.48472e-37 -0.00322625 	0.0641422 	4.47198e-39 -0.00314156 	0.0646435 	-5.11979e-37 -0.0030798 	0.0650736 	-1.07598e-36 -0.00301922 	0.0655189 	-1.64077e-36 -0.00295979 	0.0659789 	-2.20633e-36 -0.00299259 	0.0657679 	-2.77196e-36 -0.00287096 	0.0665832 	-2.15327e-36 -0.00284172 	0.0670215 	-1.53593e-36 -0.00281315 	0.0674688 	-9.18994e-37 -0.00278523 	0.0679252 	-3.02456e-37 -0.00290359 	0.0671836 	0 -0.00275376 	0.068348 	0 -0.00277776 	0.0688118 	0 -0.00280169 	0.0692745 	0 -0.00282555 	0.0697362 	0 -0.00304005 	0.0684257 	0 -0.00285444 	0.069994 	0 -0.00296444 	0.0705175 	0 -0.00307303 	0.0710226 	0 -0.00318025 	0.0715098 	0 -0.00351563 	0.0694999 	0 -0.00325631 	0.071588 	0 -0.00350334 	0.0722304 	0 -0.00374614 	0.0728257 	0 -0.00401618 	0.0729449 	0 -0.00447702 	0.0703201 	0 -0.00423911 	0.0727264 	0 -0.0045018 	0.0740122 	0 -0.0049521 	0.07478 	0 -0.0054652 	0.0738454 	0 -0.00606502 	0.0705442 	0 -0.00587638 	0.0735569 	0 -0.00601408 	0.0759968 	0 -0.00677219 	0.0770842 	0 -0.00753883 	0.0739357 	0 -0.00827544 	0.0693723 	0 -0.00820797 	0.0736079 	0 -0.00816162 	0.0780249 	0 -0.00899861 	0.078197 	0 -0.00983106 	0.0718416 	0 -0.0105672 	0.0649342 	0 -0.010771 	0.0716946 	0 -0.0110292 	0.0787994 	0 -0.0104323 	0.075037 	0 -0.0109053 	0.0647654 	0 -0.0111806 	0.0536976 	0 -0.0118995 	0.0658664 	0 -0.0113388 	0.0658296 	0 -0.00983196 	0.0570811 	0 -0.00832507 	0.0483326 	0 -0.00702553 	0.0304984 	0 -0.00771242 	0.0451183 	0 -0.00626519 	0.0366519 	0 -0.00481795 	0.0281854 	0 -0.00337071 	0.0197189 	0 0 	0 	0