# vtk DataFile Version 2.0
track0
ASCII
DATASET POLYDATA
POINTS 38223 float
0.05 8.57988e-20 2.57396e-18
0.05 0.00217391 -1.05592e-17
0.05 0.00217391 -1.05592e-17
0.05 0.00217391 -1.05592e-17
0.05 0.00217391 -1.05592e-17
0.05 0.00217391 -1.05592e-17
0.05 0.00217391 -1.38778e-17
0.0493333 0.00217563 -5.27356e-18
0.0486667 0.00217825 -2.98373e-18
0.048 0.00218234 -4.2066e-18
0.0473334 0.00218952 -7.11573e-18
0.0466667 0.0021993 -5.55112e-18
0.046 0.00221158 -5.27356e-18
0.0453333 0.0022232 -6.10621e-18
0.0446667 0.00223536 -3.77141e-18
0.044 0.00225048 -4.43772e-18
0.0433333 0.00226908 -6.93889e-18
0.0426667 0.00229157 -3.19189e-18
0.0419999 0.00231202 -1.59638e-18
0.0413332 0.00233271 -2.90933e-18
0.0406666 0.00235629 -6.69956e-18
0.04 0.00238382 -1.38778e-17
0.0393333 0.00241655 -1.42941e-17
0.0386665 0.00244608 -1.65143e-17
0.0379997 0.00247634 -1.69013e-17
0.0373331 0.00250956 -1.32795e-17
0.0366667 0.00254661 -1.249e-17
0.036 0.00259003 -1.70697e-17
0.0353331 0.00262933 -1.09609e-17
0.0346663 0.00267091 -1.06472e-17
0.0339997 0.00271565 -1.03121e-17
0.0333333 0.00276367 -1.38778e-17
0.0326667 0.00281883 -1.83187e-17
0.0319998 0.00287089 -1.92897e-17
0.0313331 0.00292635 -1.99683e-17
0.0306668 0.00298534 -1.9245e-17
0.03 0.00304808 -1.249e-17
0.0294469 0.00310513 -1.15689e-17
0.0288937 0.00316188 -1.55049e-17
0.0283408 0.00322131 -1.12882e-17
0.0277882 0.00328353 -1.34807e-17
0.0273657 0.00333333 -2.04582e-17
0.0272259 0.0033504 -1.38685e-17
0.0270861 0.00336765 -2.25444e-17
0.0269464 0.00338511 -1.87302e-17
0.0268066 0.00340276 -2.7406e-17
0.0266667 0.00342064 -2.05986e-17
0.026 0.00350867 -2.31543e-17
0.0253338 0.00359992 -2.15385e-17
0.0246682 0.00369597 -2.33866e-17
0.0240034 0.003797 -1.70753e-17
0.0233333 0.00390418 -2.17673e-17
0.0226667 0.00402965 -2.47518e-17
0.0219994 0.00415187 -1.4547e-17
0.0213331 0.00427947 -1.85249e-17
0.0206681 0.00441319 -1.7682e-17
0.02 0.00456386 -9.51983e-18
0.0193333 0.00474172 -7.30721e-18
0.0186665 0.0049189 -1.00317e-17
0.0179994 0.00509534 -1.05171e-17
0.0173358 0.00528429 -1.35146e-17
0.0166667 0.00550432 -1.38778e-17
0.0160502 0.00573679 -1.65011e-17
0.0154346 0.00597154 -1.79964e-17
0.0148234 0.00621763 -2.13355e-17
0.0142195 0.00648118 -2.88121e-17
0.0138279 0.00666667 -2.58036e-17
0.0137289 0.0067161 -2.28633e-17
0.0136304 0.00676616 -2.9638e-17
0.0135321 0.00681685 -2.39233e-17
0.0134342 0.00686819 -1.71796e-17
0.0133333 0.00692214 -1.98544e-17
0.0126667 0.00728722 -1.35234e-17
0.0120125 0.00767433 -1.34742e-17
0.0113739 0.00808643 -1.49031e-17
0.0107525 0.00852423 -1.34009e-17
0.01 0.00911577 -6.93889e-18
0.00980328 0.00929261 -3.67192e-18
0.00960837 0.00947147 -4.57283e-18
0.00941532 0.00965232 -4.23608e-18
0.00922418 0.00983518 2.91922e-18
0.00905549 0.01 0
0.00857773 0.0104757 1.18831e-18
0.00812326 0.0109737 -6.24934e-18
0.00769355 0.0114932 -7.55004e-18
0.00728746 0.0120314 -9.62801e-18
0.00666667 0.0129263 -1.38778e-17
0.00661725 0.0130077 -1.11845e-17
0.00656814 0.0130893 -1.82052e-17
0.00651933 0.0131711 -2.1062e-17
0.00647083 0.013253 -1.7715e-17
0.00642347 0.0133333 -1.80411e-17
0.00603122 0.014 -8.74301e-18
0.005675 0.0146866 -1.12742e-17
0.00534909 0.0153881 -5.71993e-18
0.00504995 0.0161014 -4.03855e-18
0.00481518 0.0166667 -8.44142e-18
0.00454018 0.0173333 -7.39363e-18
0.00430404 0.0180147 -5.24998e-18
0.00409425 0.0187047 -6.13929e-18
0.00389499 0.0193978 -7.86037e-18
0.00373122 0.02 -1.64657e-17
0.00365165 0.0202874 -4.56836e-18
0.00357895 0.0205767 -1.6449e-17
0.00350843 0.0208664 -1.34204e-17
0.00343963 0.0211566 -1.07409e-17
0.00333333 0.0216169 -1.34236e-17
0.00325724 0.0219602 -9.84116e-18
0.00318322 0.0223039 -9.96444e-18
0.00311119 0.0226481 -1.28599e-17
0.0030411 0.0229926 -6.03778e-18
0.00297371 0.0233333 1.38778e-18
0.00283795 0.024 1.66533e-18
0.00271646 0.0246694 5.7547e-18
0.00260239 0.0253401 5.98924e-18
0.00249516 0.026012 4.84513e-18
0.00239293 0.0266667 6.93889e-18
0.00227783 0.0273333 9.29812e-18
0.00218108 0.0280029 1.09707e-17
0.00209856 0.0286744 1.42501e-17
0.00202153 0.0293465 1.43277e-17
0.00193659 0.03 1.11022e-17
0.00183743 0.0306667 6.52256e-18
0.0017578 0.0313359 6.44882e-18
0.00169674 0.0320072 4.48188e-18
0.00163777 0.0326786 2.493e-19
0.00156681 0.0333333 -2.47164e-18
0.00148043 0.034 -4.38414e-18
0.00141498 0.034669 -5.11788e-18
0.00136885 0.0353397 -7.21609e-18
0.00132375 0.0360104 -5.82728e-18
0.00126475 0.0366667 -5.92262e-18
0.00118898 0.0373333 -2.67393e-18
0.00113575 0.0380022 1.89392e-18
0.00109731 0.038672 3.25234e-18
0.00105887 0.0393419 3.44296e-18
0.00101059 0.04 2.48036e-18
0.000943854 0.0406667 1.09182e-17
0.000901677 0.0413353 4.88552e-18
0.000868073 0.0420045 5.68241e-18
0.000834468 0.0426736 8.61774e-18
0.000796213 0.0433333 1.1164e-17
0.000737309 0.044 1.40377e-17
0.00070548 0.0446685 1.42325e-17
0.000676066 0.0453371 1.15816e-17
0.000646653 0.0460057 8.03956e-18
0.000617578 0.0466667 3.13486e-18
0.000565536 0.0473333 2.16335e-18
0.000539776 0.0480015 2.01798e-18
0.000514016 0.0486697 7.76646e-18
0.000488256 0.0493379 4.57202e-18
0.000462732 0.05 8.94385e-18
0.000416676 0.0506667 2.32451e-18
0.000394063 0.0513345 8.5051e-18
0.00037145 0.0520024 6.03282e-18
0.000348838 0.0526703 9.43087e-18
0.000326388 0.0533333 5.00757e-18
0.000285438 0.054 7.22682e-18
0.000265428 0.0546676 -9.95544e-19
0.000245418 0.0553352 2.5642e-18
0.000225408 0.0560029 8.73823e-18
0.000205513 0.0566667 7.98443e-18
0.000168671 0.0573333 1.50541e-17
0.000150603 0.0580008 7.52204e-18
0.000132535 0.0586682 1.88712e-17
0.000114467 0.0593357 1.77597e-17
9.64831e-05 0.06 1.64927e-17
7.71865e-05 0.0603787 9.1757e-18
6.75257e-05 0.0607577 1.50272e-17
5.78649e-05 0.0611368 2.40012e-17
4.82041e-05 0.0615158 1.90974e-17
1.88077e-06 0.0633333 2.77524e-17
1.50462e-06 0.063341 2.30441e-17
1.30702e-06 0.0633487 2.55238e-17
1.10941e-06 0.0633563 2.09615e-17
9.1181e-07 0.063364 1.65077e-17
0 0.0633993 1.84113e-17
0.05 0.00434783 5.94331e-18
0.0493333 0.00434961 6.63424e-18
0.0486667 0.00435428 5.93256e-18
0.048 0.00436124 3.67753e-18
0.0473334 0.00436983 8.9424e-18
0.0466667 0.00438136 1.07447e-17
0.046 0.00439693 7.24932e-18
0.0453334 0.00441402 1.13842e-17
0.0446668 0.00443266 6.80089e-18
0.0440002 0.0044529 8.33932e-18
0.0433333 0.00447706 6.23097e-18
0.0426667 0.00450647 7.12076e-18
0.042 0.00453622 1.14823e-17
0.0413334 0.00456657 1.26981e-17
0.0406668 0.00459854 5.28495e-18
0.04 0.00463615 -5.63907e-18
0.0393333 0.00468027 -1.89615e-18
0.0386666 0.00472377 -7.17277e-18
0.0379999 0.00476665 -9.11406e-18
0.0373333 0.00481182 -4.89297e-18
0.0366667 0.00486455 4.86048e-19
0.036 0.00492519 -9.22711e-18
0.0353332 0.00498449 -1.34518e-17
0.0346663 0.00504245 -1.39853e-17
0.0339997 0.0051041 -1.71742e-17
0.0333333 0.00517472 -1.38778e-17
0.0326667 0.00525478 -1.91513e-17
0.0319998 0.0053331 -1.54038e-17
0.0313327 0.00540966 -1.90109e-17
0.0306664 0.00549225 -1.88609e-17
0.03 0.00558493 -1.94289e-17
0.0293333 0.00568874 -1.63758e-17
0.0286664 0.00579078 -1.99836e-17
0.028 0.00589624 -2.12671e-17
0.0273348 0.00600898 -1.643e-17
0.0266667 0.00613019 -9.71445e-18
0.0261325 0.00623748 -4.98219e-19
0.0255984 0.00634488 -4.46592e-18
0.0250653 0.00645763 -3.23129e-18
0.0245335 0.00657597 4.6232e-18
0.0241461 0.00666667 1.25243e-17
0.0239835 0.00670615 1.14073e-17
0.0238211 0.00674623 1.02899e-17
0.0236589 0.00678691 1.7499e-17
0.0234968 0.00682822 1.22178e-17
0.0233333 0.00687053 1.63138e-17
0.0226667 0.0070481 1.32426e-17
0.0220025 0.00723481 1.43194e-17
0.0213415 0.00743236 8.20824e-18
0.0206839 0.00764124 6.38206e-18
0.02 0.00787534 1.13459e-17
0.0193333 0.00812879 3.99934e-18
0.0186708 0.00839284 2.15036e-19
0.0180128 0.00866809 1.59583e-18
0.0173623 0.00896055 2.42491e-18
0.0166667 0.00930211 0
0.0164078 0.00944169 9.56699e-19
0.01615 0.00958327 2.24812e-18
0.0158935 0.00972711 1.28752e-18
0.0156387 0.00987393 1.71187e-18
0.0154258 0.01 4.16334e-18
0.0150073 0.0102535 9.65563e-19
0.014595 0.010517 -1.75417e-18
0.0141893 0.0107906 -1.25277e-17
0.0137906 0.0110742 -1.00748e-17
0.0133333 0.0114199 -3.05844e-18
0.0128622 0.0118026 -2.17244e-18
0.0124013 0.0121976 -9.87885e-18
0.0119511 0.0126048 -1.1229e-17
0.0115125 0.0130244 -1.32611e-17
0.0112073 0.0133333 -3.73669e-18
0.0109658 0.0135876 -1.32402e-18
0.0107301 0.0138472 -2.43753e-18
0.0105 0.0141118 -4.74038e-18
0.0102756 0.0143813 5.92355e-19
0.01 0.0147264 6.52012e-19
0.00970587 0.0151145 -4.89829e-19
0.00942054 0.015509 -5.12832e-18
0.00914398 0.0159098 -2.04389e-18
0.00887574 0.0163162 1.87226e-18
0.00865215 0.0166667 0
0.00825506 0.0173072 -3.83846e-18
0.00788696 0.0179649 -4.44471e-18
0.00754645 0.0186372 -2.36338e-18
0.00722513 0.019319 -4.47681e-18
0.00692612 0.02 -6.29079e-18
0.00687423 0.0201251 -7.80819e-18
0.00682332 0.0202506 -1.04254e-17
0.00677321 0.0203764 -7.53035e-18
0.00672372 0.0205024 -5.15635e-18
0.00666667 0.0206499 -1.15604e-17
0.00646256 0.0211866 -1.89306e-18
0.00626853 0.021727 -2.05081e-18
0.00608404 0.0222708 -9.70265e-19
0.00590854 0.0228175 8.89531e-18
0.00574841 0.0233333 6.93889e-18
0.00554004 0.024 1.20737e-17
0.00535372 0.0246732 1.06057e-17
0.00518791 0.0253517 1.02689e-17
0.00503026 0.0260321 1.11603e-17
0.00487929 0.0266667 1.42701e-17
0.00471701 0.0273333 1.38648e-17
0.00457536 0.0280047 1.41244e-17
0.00445113 0.0286795 1.5383e-17
0.00433094 0.029355 1.55058e-17
0.0042141 0.03 1.93499e-17
0.00408809 0.0306667 2.02537e-17
0.00398102 0.0313366 1.78007e-17
0.00387917 0.0320074 2.09431e-17
0.00378081 0.0326787 2.32946e-17
0.00368825 0.0333333 1.88378e-17
0.00361727 0.0338209 2.06354e-17
0.00355291 0.0343094 1.51376e-17
0.00349027 0.0347982 2.1607e-17
0.0034293 0.0352871 2.10325e-17
0.00333333 0.0360782 3.19189e-17
0.00331967 0.0361959 3.32839e-17
0.0033061 0.0363136 3.46491e-17
0.00329261 0.0364313 2.76878e-17
0.00327921 0.036549 3.0441e-17
0.0032659 0.0366667 4.30211e-17
0.00319013 0.0373333 4.1217e-17
0.00311795 0.0380004 3.38611e-17
0.00304855 0.0386678 2.72813e-17
0.0029818 0.0393354 3.27213e-17
0.00291791 0.04 3.60822e-17
0.00285117 0.0406667 3.28904e-17
[...]
POINT_DATA 38223
 FIELD attributes 1
U 3 38223 float
-5.93108e-19 	-1.29089e-21 	0
-0.013946 	3.58699e-05 	0 -0.013946 	3.58699e-05 	0 -0.013946 	3.58699e-05 	0 -0.013946 	3.58699e-05 	0 -0.013946 	3.58699e-05 	0 -0.013946 	3.58699e-05 	0 -0.0142684 	5.61677e-05 	0 -0.014496 	8.88567e-05 	-6.01394e-25 -0.0144553 	0.000155765 	-2.86441e-24 -0.01421 	0.00020843 	-5.13778e-24 -0.0138958 	0.000255859 	-7.42021e-24 -0.0142104 	0.000247707 	2.8813e-22 -0.0143865 	0.00026244 	4.84363e-22 -0.0142917 	0.000324104 	4.77844e-22 -0.0140658 	0.00039239 	2.85486e-22 -0.0137774 	0.000464782 	-1.12841e-23 -0.0140718 	0.000431799 	1.30703e-22 -0.0141622 	0.000439298 	2.16621e-22 -0.0140234 	0.000496031 	2.35081e-22 -0.013827 	0.000571236 	1.86827e-22 -0.0135743 	0.000666295 	6.78045e-23 -0.0138388 	0.000612893 	4.97729e-23 -0.0138157 	0.000627082 	4.14936e-23 -0.0136453 	0.000679982 	3.87712e-23 -0.0134717 	0.000748916 	4.06743e-23 -0.0132624 	0.000863781 	5.61985e-23 -0.0134895 	0.000794884 	4.24448e-23 -0.013334 	0.00083149 	2.42794e-23 -0.0131453 	0.000882266 	5.62739e-24 -0.0129713 	0.000934642 	-1.29706e-23 -0.0128118 	0.00106013 	-1.89416e-23 -0.0129162 	0.0010083 	-8.8352e-23 -0.0127076 	0.0010571 	-7.47823e-23 -0.0125132 	0.00110781 	-6.07416e-23 -0.0123334 	0.0011605 	-4.62102e-23 -0.0121992 	0.00125824 	7.91899e-24 -0.012163 	0.00124779 	-3.58365e-23 -0.0119927 	0.00128922 	-2.55455e-23 -0.0118321 	0.00133226 	-1.47377e-23 -0.0116816 	0.00137694 	-3.3945e-24 -0.0115744 	0.00141244 	5.70721e-24 -0.0115414 	0.00142479 	8.89348e-24 -0.0115091 	0.00143727 	1.21181e-23 -0.0114776 	0.00144987 	1.53813e-23 -0.0114467 	0.00146259 	1.86834e-23 -0.0113821 	0.00150288 	6.97746e-24 -0.011166 	0.0015294 	5.38143e-24 -0.0109795 	0.00158445 	6.25378e-24 -0.0108076 	0.00164248 	7.10111e-24 -0.0106508 	0.00170362 	7.92233e-24 -0.0103163 	0.00194159 	4.25458e-23 -0.0100059 	0.00183265 	3.16653e-22 -0.00983501 	0.00188367 	3.85859e-22 -0.00968577 	0.00194738 	4.45707e-22 -0.00944039 	0.00212906 	3.65428e-22 -0.00912245 	0.00243387 	1.51611e-22 -0.0088494 	0.00235128 	3.79062e-22 -0.00857478 	0.00226802 	6.06499e-22 -0.00829361 	0.00236151 	6.19347e-22 -0.00803681 	0.00264262 	4.20554e-22 -0.00782255 	0.0029498 	2.22853e-22 -0.00761906 	0.00290534 	4.03831e-22 -0.00735477 	0.00296139 	4.34946e-22 -0.00707286 	0.00308689 	3.7659e-22 -0.00682276 	0.00323102 	3.15144e-22 -0.0066808 	0.00333887 	2.72588e-22 -0.00664078 	0.00337217 	2.61733e-22 -0.00660187 	0.00340621 	2.50773e-22 -0.00656409 	0.00344098 	2.39706e-22 -0.0065145 	0.00348533 	2.38543e-22 -0.00645822 	0.00353665 	2.42233e-22 -0.00609578 	0.00360756 	1.62565e-22 -0.00584669 	0.00377242 	8.94901e-23 -0.00562666 	0.00396468 	1.79331e-23 -0.00537157 	0.00422235 	2.40312e-23 -0.00510572 	0.00458982 	2.9381e-23 -0.00504653 	0.00463097 	1.69681e-23 -0.00499046 	0.00467503 	4.5491e-24 -0.0049361 	0.00472217 	2.67969e-23 -0.00488413 	0.00477236 	6.9086e-23 -0.00484066 	0.00481978 	1.06796e-22 -0.00456112 	0.00499817 	1.07029e-22 -0.00431138 	0.00521248 	1.02105e-22 -0.00409829 	0.00543138 	9.19912e-23 -0.00391992 	0.0056506 	7.71398e-23 -0.00367378 	0.00605161 	4.62842e-23 -0.0036584 	0.00607799 	7.61975e-23 -0.00364337 	0.00610484 	1.05846e-22 -0.0036287 	0.00613215 	1.3523e-22 -0.0036286 	0.00615181 	7.29226e-23 -0.00363042 	0.0061702 	3.09507e-25 -0.00328571 	0.00633319 	-5.7926e-22 -0.00309474 	0.00666095 	-9.5521e-22 -0.00295333 	0.00704262 	-1.28776e-21 -0.00303482 	0.00730668 	-1.01867e-21 -0.00310171 	0.00751951 	-8.05117e-22 -0.00271954 	0.00784716 	-5.32326e-22 -0.00247409 	0.00813725 	-3.08724e-22 -0.00239158 	0.00831839 	-1.62607e-22 -0.00231744 	0.00852204 	-1.23439e-23 -0.00245173 	0.00885519 	5.54392e-24 -0.00228657 	0.00909732 	4.30419e-25 -0.00223977 	0.00920379 	0 -0.0022053 	0.00930234 	0 -0.00217244 	0.00940597 	0 -0.00212289 	0.00957792 	0 -0.00208958 	0.00970311 	0 -0.00205819 	0.00983465 	0 -0.00202863 	0.00997232 	0 -0.00200086 	0.0101159 	0 -0.00205132 	0.010073 	0 -0.00184759 	0.0101807 	0 -0.0017837 	0.0104876 	0 -0.00172761 	0.0108241 	0 -0.00172539 	0.0110502 	0 -0.00187256 	0.0108456 	0 -0.00158689 	0.0109826 	0 -0.00138371 	0.0112587 	0 -0.00134293 	0.0117181 	0 -0.00150172 	0.0115544 	0 -0.00167334 	0.0112497 	0 -0.00136837 	0.0115002 	0 -0.00107941 	0.0118673 	0 -0.00105536 	0.012016 	0 -0.00126738 	0.0116929 	0 -0.00146158 	0.011281 	0 -0.0011407 	0.0116593 	0 -0.000838471 	0.0121918 	0 -0.000800871 	0.0119088 	0 -0.00103453 	0.011507 	0 -0.00124846 	0.0109848 	0 -0.000915361 	0.0115027 	0 -0.000681066 	0.0118678 	0 -0.000658014 	0.0114662 	0 -0.000805579 	0.0109817 	0 -0.00103626 	0.0103513 	0 -0.000694927 	0.0110173 	0 -0.000555479 	0.0110611 	0 -0.000534777 	0.0106488 	0 -0.000589372 	0.0101634 	0 -0.000833518 	0.00943369 	0 -0.000488163 	0.0102527 	0 -0.000438326 	0.00996393 	0 -0.000420051 	0.00954851 	0 -0.000401776 	0.00913309 	0 -0.000649722 	0.00832299 	0 -0.000348589 	0.00904217 	0 -0.000332711 	0.0086303 	0 -0.000316833 	0.00821843 	0 -0.000300955 	0.00780657 	0 -0.000482887 	0.00698991 	0 -0.000251635 	0.00743206 	0 -0.000237979 	0.00702872 	0 -0.000224322 	0.00662539 	0 -0.000210666 	0.00622205 	0 -0.000335152 	0.00545623 	2.70919e-37 -0.00016811 	0.00560893 	0 -0.000156325 	0.00521573 	0 -0.00014454 	0.00482253 	0 -0.000132755 	0.00442933 	0 -0.000207857 	0.00376126 	2.73773e-40 -9.78441e-05 	0.00361442 	0 -8.73631e-05 	0.00322725 	0 -7.68822e-05 	0.00284007 	0 -6.64012e-05 	0.0024529 	0 -9.7676e-05 	0.0019168 	-7.99575e-38 -4.56337e-05 	0.00179046 	0 -3.99221e-05 	0.00156636 	0 -3.42105e-05 	0.00134227 	0 -2.84989e-05 	0.00111817 	0 -1.98091e-06 	4.03257e-05 	0 -9.7052e-07 	3.7642e-05 	0 -8.4306e-07 	3.26984e-05 	0 -7.15601e-07 	2.77548e-05 	0 -5.88142e-07 	2.28113e-05 	0 0 	0 	0
-0.0270854 	7.23773e-05 	0 -0.0272902 	0.000191318 	0 -0.0273898 	0.000285776 	-1.05391e-24 -0.027367 	0.000352996 	-3.27959e-24 -0.0271856 	0.000469706 	-2.70831e-23 -0.0268812 	0.000627884 	-6.88894e-23 -0.027006 	0.000692492 	-3.39916e-22 -0.0270625 	0.000756671 	-5.09045e-22 -0.0270074 	0.000819988 	-5.18659e-22 -0.0267399 	0.000968882 	-3.58069e-22 -0.0263784 	0.0011636 	-1.09246e-22 -0.026425 	0.0011792 	-1.98294e-22 -0.0264459 	0.00120405 	-2.66053e-22 -0.0263636 	0.00126447 	-2.51195e-22 -0.025989 	0.00146572 	-1.23948e-22 -0.0255922 	0.00169384 	2.19275e-23 -0.0255677 	0.0016683 	1.79058e-22 -0.0255399 	0.00164241 	3.36233e-22 -0.0253946 	0.00172074 	3.32943e-22 -0.0249497 	0.00197364 	1.8651e-22 -0.0245402 	0.00223198 	3.99066e-23 -0.0244554 	0.00217522 	-1.87298e-23 -0.0243644 	0.00211748 	-7.73473e-23 -0.024082 	0.00222727 	-7.98648e-23 -0.0236431 	0.00250551 	-2.75991e-23 -0.0232425 	0.00279106 	2.48861e-23 -0.0231107 	0.00271436 	1.20678e-22 -0.0229715 	0.0026362 	2.16454e-22 -0.0224958 	0.00278841 	2.26295e-22 -0.0220805 	0.00307079 	1.68955e-22 -0.021708 	0.00338053 	1.02106e-22 -0.0215435 	0.00329596 	2.08623e-22 -0.0211915 	0.00335356 	2.36192e-22 -0.0207286 	0.00351306 	2.09658e-22 -0.0202913 	0.00368127 	1.82195e-22 -0.0199618 	0.00400968 	7.07175e-23 -0.0197801 	0.00397712 	6.53177e-23 -0.019418 	0.0041073 	9.17116e-23 -0.0190725 	0.00424406 	1.18512e-22 -0.0187443 	0.00438769 	1.45736e-22 -0.0185179 	0.00449784 	1.6594e-22 -0.0184271 	0.00454793 	1.67999e-22 -0.0183382 	0.00459878 	1.70003e-22 -0.0182512 	0.00465042 	1.71952e-22 -0.0181661 	0.00470285 	1.73845e-22 -0.0180198 	0.00479983 	1.80796e-22 -0.0175598 	0.0049364 	1.63889e-22 -0.0171729 	0.00513209 	1.68075e-22 -0.0168146 	0.00534165 	1.70255e-22 -0.0164137 	0.00561802 	1.87115e-22 -0.0158807 	0.00603753 	2.37373e-22 -0.015437 	0.00615224 	1.34574e-22 -0.0150208 	0.00628378 	3.10533e-23 -0.0145092 	0.00652322 	0 -0.0140874 	0.00691667 	3.41809e-23 -0.0136857 	0.00737949 	6.93877e-23 -0.0135553 	0.00744551 	2.97735e-23 -0.0134167 	0.00752347 	0 -0.0132448 	0.0076314 	0 -0.0130796 	0.00774417 	0 -0.0129464 	0.00784319 	0 -0.0126435 	0.00808047 	0 -0.012362 	0.0083355 	0 -0.0121027 	0.00860858 	0 -0.0117879 	0.00891124 	0 -0.01144 	0.00929177 	0 -0.011122 	0.00953291 	0 -0.0108339 	0.00980125 	0 -0.0105335 	0.0100771 	0 -0.0102516 	0.0103749 	0 -0.010073 	0.0106082 	0 -0.00986486 	0.0108598 	0 -0.00966993 	0.0111252 	0 -0.00947367 	0.0113761 	-1.15604e-23 -0.009279 	0.0116184 	-3.20606e-23 -0.0090496 	0.0119392 	-5.78264e-23 -0.00882803 	0.0122083 	-6.17249e-23 -0.00862555 	0.0124991 	-6.62598e-23 -0.00844627 	0.0127962 	-8.75894e-23 -0.00831027 	0.0130267 	-2.03371e-22 -0.0082055 	0.0132363 	-3.02285e-22 -0.00772333 	0.0137986 	-4.76459e-22 -0.00729869 	0.0144116 	-6.21357e-22 -0.00700003 	0.0148516 	-4.16517e-22 -0.00673386 	0.0153374 	-2.14852e-22 -0.0066055 	0.0159231 	1.59906e-23 -0.00652795 	0.0160917 	9.73987e-23 -0.00646405 	0.0162276 	1.25777e-22 -0.00641196 	0.0163347 	1.07844e-22 -0.00636108 	0.0164437 	9.02033e-23 -0.00630306 	0.0165732 	6.99393e-23 -0.00610378 	0.0169999 	7.6274e-23 -0.00592357 	0.0174587 	8.33884e-23 -0.00576138 	0.0179475 	9.12343e-23 -0.00569675 	0.0183519 	1.03138e-22 -0.00579445 	0.0185395 	1.20955e-22 -0.00528815 	0.0191052 	7.71303e-23 -0.00482745 	0.0197546 	4.47268e-23 -0.00474414 	0.0204764 	2.13645e-22 -0.00494757 	0.0207957 	4.20645e-22 -0.00513084 	0.0210782 	6.12122e-22 -0.00461225 	0.0218597 	2.83901e-22 -0.00416991 	0.0226505 	0 -0.00407966 	0.0229284 	0 -0.00421472 	0.0232667 	3.23078e-25 -0.00446101 	0.0236019 	8.07007e-25 -0.00393443 	0.0246181 	8.0712e-26 -0.0037982 	0.0250149 	0 -0.00371443 	0.0253516 	0 -0.00363516 	0.0257095 	0 -0.00379576 	0.0260731 	-1.45171e-22 -0.00352293 	0.0267405 	0 -0.00346173 	0.0270091 	0 -0.00340289 	0.0272902 	0 -0.00334633 	0.0275835 	0 -0.00325847 	0.0280771 	0 -0.00324645 	0.0281538 	0 -0.00323455 	0.0282311 	0 -0.00322277 	0.028309 	0 -0.0032111 	0.0283876 	0 -0.00322386 	0.0283656 	0 -0.00311361 	0.0287754 	0 -0.00303716 	0.0292023 	0 -0.00296463 	0.0296532 	0 -0.00289588 	0.0301271 	0 -0.00299201 	0.0298877 	0 -0.00273017 	0.0304764 	0 -0.00265744 	0.0309604 	0 -0.00258832 	0.0314692 	0 -0.00252268 	0.0320016 	0 -0.0027499 	0.0311232 	0 -0.00240455 	0.0319422 	0 -0.00229125 	0.0325303 	0 -0.00222524 	0.0330908 	0 -0.00226604 	0.0331209 	0 -0.00250423 	0.0320793 	0 -0.00215903 	0.0330525 	0 -0.00194435 	0.0338893 	0 -0.00188202 	0.0344944 	0 -0.00202255 	0.0339696 	0 -0.00226497 	0.032786 	0 -0.00192381 	0.0339108 	0 -0.0016278 	0.0350635 	7.22499e-38 -0.0015712 	0.0357057 	6.00617e-37 -0.00179959 	0.034615 	1.13038e-36 -0.0020451 	0.0332939 	1.65315e-36 -0.00171112 	0.0345649 	1.06579e-36 -0.00138508 	0.0359696 	4.84645e-37 -0.00135076 	0.0364223 	7.45754e-40 -0.0016077 	0.0350693 	1.60194e-39 -0.00185767 	0.0336153 	2.44678e-39 -0.00153286 	0.0350257 	1.50961e-39 -0.00121563 	0.0365773 	5.82114e-40 -0.0011942 	0.0368183 	-3.44916e-37 -0.00146076 	0.0353458 	-8.80011e-37 -0.00172039 	0.033761 	-1.40831e-36 -0.00140523 	0.0353061 	-8.27679e-37 -0.00109745 	0.0369997 	-2.52919e-37 -0.00108966 	0.0370536 	0 -0.00137728 	0.0354616 	0 -0.0016574 	0.0337399 	0 -0.00135076 	0.0354221 	0 -0.0010517 	0.0372623 	0 -0.00105161 	0.0371248 	0 -0.00138016 	0.0354014 	0 -0.00169946 	0.0335192 	0 -0.0013993 	0.0353588 	0 -0.00110768 	0.0373706 	0 -0.00109491 	0.0369813 	0 -0.00149548 	0.035091 	0 -0.00188253 	0.0329908 	0 -0.0015883 	0.0350447 	0 -0.00133324 	0.0369423 	0 -0.00130767 	0.0362336 	0 -0.00173673 	0.0342809 	0 -0.0022302 	0.0318413 	0 -0.00194881 	0.0342431 	0 -0.00175464 	0.0355363 	0 -0.00170153 	0.0344607 	0 -0.00205766 	0.0324427 	0 -0.00270016 	0.0294316 	0 -0.00245904 	0.0324728 	0 -0.00229779 	0.0324367 	0 -0.00217272 	0.0306712 	0 -0.00222104 	0.0285344 	0 -0.00304047 	0.0245599 	0 -0.0029041 	0.0285765 	0 -0.00259607 	0.0255455 	0 -0.00228804 	0.0225144 	0 -0.00198001 	0.0194834 	0 -0.00242038 	0.0146332 	0 -0.0023195 	0.0166779 	0 -0.00183001 	0.0131583 	0 -0.00134052 	0.00963873 	0 -0.000851031 	0.00611915 	0 0 	0 	0
-0.0393029 	0.000109613 	0 -0.0392696 	0.000298422 	-3.05654e-23 -0.0391868 	0.000507047 	-6.97773e-23 -0.0391224 	0.000716197 	-1.09195e-22 -0.0390765 	0.000925868 	-1.48818e-22 -0.0390097 	0.00112821 	-1.8901e-22 -0.0388687 	0.00130371 	-2.39486e-22 -0.0386937 	0.00149955 	-2.50684e-22 -0.0385363 	0.0016968 	-2.60759e-22 -0.0383967 	0.00189547 	-2.69697e-22 -0.0383799 	0.00192329 	-2.7078e-22 -0.0383608 	0.00195807 	-2.73123e-22 -0.0383423 	0.0019929 	-2.75451e-22 -0.0383244 	0.00202778 	-2.77763e-22 -0.038307 	0.0020627 	-2.8006e-22 -0.0382776 	0.0021038 	-2.84086e-22 -0.0380225 	0.00229009 	-2.40108e-22 -0.0377797 	0.0024776 	-1.96567e-22 -0.0375551 	0.00266754 	-1.52635e-22 -0.037349 	0.00285994 	-1.08308e-22 -0.0370521 	0.00311148 	-7.01817e-23 -0.0367649 	0.00328618 	-1.37879e-22 -0.0364675 	0.00346919 	-1.32119e-22 -0.0361885 	0.00365557 	-1.27174e-22 -0.0359283 	0.00384537 	-1.23061e-22 -0.0354385 	0.00417499 	5.57487e-23 -0.0351101 	0.00431241 	4.15881e-23 -0.0347791 	0.0044971 	5.78656e-23 -0.0344671 	0.00468624 	7.43215e-23 -0.0340762 	0.00493735 	8.52639e-23 -0.0334851 	0.00532686 	8.36107e-23 -0.0331056 	0.00544582 	4.69506e-23 -0.0327461 	0.00558435 	2.0107e-23 -0.0324229 	0.00578377 	2.9596e-23 -0.0318151 	0.00617886 	5.35682e-23 -0.0312367 	0.00659403 	7.73971e-23 -0.0308351 	0.00671306 	4.17907e-23 -0.0304494 	0.0068382 	6.03855e-24 -0.0298407 	0.00712771 	0 -0.0292734 	0.00754747 	1.22101e-23 -0.0287375 	0.00799579 	2.4705e-23 -0.028343 	0.00813232 	3.39996e-24 -0.0277466 	0.00842994 	0 -0.0271419 	0.00877394 	0 -0.0265753 	0.00913781 	0 -0.0261124 	0.00947583 	0 -0.0260966 	0.00948979 	0 -0.0260808 	0.00950378 	0 -0.0260651 	0.00951779 	0 -0.0260466 	0.00953329 	0 -0.0260225 	0.00955181 	0 -0.0254137 	0.00990929 	0 -0.0248512 	0.0102977 	0 -0.0243291 	0.0107116 	0 -0.023753 	0.0111979 	0 -0.0230378 	0.0118286 	0 -0.0224561 	0.01219 	0 -0.0218975 	0.0125924 	0 -0.0212202 	0.0130917 	0 -0.0206033 	0.0136346 	0 -0.0200169 	0.0142563 	0 -0.0200063 	0.0142704 	0 -0.0199958 	0.0142845 	0 -0.019985 	0.0142987 	0 -0.0199708 	0.0143131 	0 -0.0199566 	0.0143277 	0 -0.0192477 	0.0148955 	0 -0.0186128 	0.0155292 	0 -0.0180223 	0.0162143 	1.39454e-24 -0.0173775 	0.0169154 	1.14019e-23 -0.0166174 	0.0179216 	2.46474e-23 -0.0165448 	0.0180196 	2.47076e-23 -0.0164737 	0.018119 	2.47755e-23 -0.0164 	0.0182123 	2.17491e-23 -0.016322 	0.0182959 	1.41775e-23 -0.0162487 	0.018377 	6.94652e-24 -0.0155218 	0.0191539 	4.47118e-23 -0.0148695 	0.0200159 	8.63931e-23 -0.0142655 	0.0208143 	2.03841e-24 -0.0137749 	0.0216399 	-1.88895e-22 -0.0134651 	0.0223453 	-3.50188e-22 -0.0133589 	0.0225642 	-4.49884e-22 -0.0132553 	0.0227794 	-5.27508e-22 -0.0131525 	0.0229467 	-4.37739e-22 -0.013052 	0.0231167 	-3.487e-22 -0.0129412 	0.0233115 	-2.49039e-22 -0.0125652 	0.0239338 	-1.29094e-24 -0.0122227 	0.024598 	2.40224e-22 -0.0119126 	0.025302 	4.75665e-22 -0.0117099 	0.0258107 	3.56102e-22 -0.0115689 	0.0262216 	1.49163e-22 -0.0109878 	0.0271775 	1.63105e-23 -0.0104544 	0.0282078 	-1.18533e-22 -0.0101074 	0.0288666 	2.11774e-22 -0.00993877 	0.0295617 	9.74663e-22 -0.00986057 	0.0302284 	1.81731e-21 -0.00951476 	0.0310691 	2.51987e-21 -0.00928214 	0.0316405 	2.24599e-21 -0.0090901 	0.0321442 	1.68869e-21 -0.00890843 	0.0326673 	1.14356e-21 -0.00865127 	0.0334785 	3.4465e-22 -0.00859273 	0.033686 	2.58594e-22 -0.00853544 	0.0338959 	1.72698e-22 -0.00847938 	0.0341082 	8.69604e-23 -0.00842612 	0.03432 	2.73563e-24 -0.00847196 	0.0343561 	2.85462e-24 -0.00806373 	0.0351837 	-1.14257e-22 -0.00782641 	0.0360673 	-3.26025e-22 -0.00760855 	0.0369925 	-5.41681e-22 -0.00749495 	0.0377835 	-7.60786e-22 -0.00771951 	0.0379263 	-9.75163e-22 -0.00711285 	0.0389638 	-6.46975e-22 -0.00661884 	0.0400663 	-8.6024e-23 -0.00643991 	0.0411689 	1.26565e-21 -0.00671511 	0.0413375 	2.31302e-21 -0.00697935 	0.0414642 	3.32158e-21 -0.00636514 	0.0427123 	1.88745e-21 -0.00577548 	0.0440536 	4.72785e-22 -0.00564039 	0.0446791 	7.91096e-25 -0.00595304 	0.0448143 	3.41749e-24 -0.00625007 	0.0449116 	5.97064e-24 -0.00563209 	0.0463689 	2.56717e-24 -0.00515303 	0.047624 	0 -0.00506072 	0.0479895 	0 -0.00522044 	0.0481874 	-3.07081e-21 -0.00554207 	0.0482394 	-8.15475e-21 -0.00492464 	0.0498986 	-1.7331e-21 -0.00469299 	0.0506348 	0 -0.00460399 	0.05103 	0 -0.00452917 	0.0514316 	-2.73344e-25 -0.00486781 	0.0514209 	-1.01068e-23 -0.00433268 	0.0530379 	0 -0.00424572 	0.0534379 	0 -0.00416098 	0.0538568 	0 -0.0040784 	0.0542942 	0 -0.00423956 	0.0544222 	2.36631e-21 -0.00390392 	0.0555842 	3.07068e-37 -0.00382385 	0.0560025 	8.99637e-37 -0.00374569 	0.0564392 	1.4912e-36 -0.0036694 	0.0568938 	2.08179e-36 -0.00367521 	0.0572304 	2.76684e-36 -0.00355235 	0.0577443 	3.00888e-36 -0.00351434 	0.057977 	2.5761e-36 -0.00347681 	0.0582147 	2.14521e-36 -0.00343974 	0.0584575 	1.71619e-36 -0.00339312 	0.0587731 	1.17209e-36 -0.00336519 	0.0589697 	9.25037e-37 -0.00333753 	0.0591691 	6.78127e-37 -0.00331013 	0.0593715 	4.31363e-37 -0.00328301 	0.0595766 	1.84743e-37 -0.00329096 	0.0595514 	4.33461e-39 -0.00320405 	0.0601021 	-4.52681e-37 -0.00315338 	0.0605504 	-9.767e-37 -0.00310389 	0.0610125 	-1.50143e-36 -0.00305555 	0.0614881 	-2.02686e-36 -0.00311778 	0.0611834 	-2.55221e-36 -0.00297776 	0.062063 	-1.97158e-36 -0.00295785 	0.0625333 	-1.39251e-36 -0.00293861 	0.0630118 	-8.1379e-37 -0.00292002 	0.0634984 	-2.35422e-37 -0.00307596 	0.0626177 	0 -0.0028855 	0.0638735 	0 -0.00291621 	0.0643844 	0 -0.00294678 	0.0648937 	0 -0.00297724 	0.0654015 	0 -0.00323883 	0.0638812 	0 -0.00298128 	0.0655818 	0 -0.00309408 	0.0661689 	0 -0.00320529 	0.0667377 	0 -0.00332575 	0.0671804 	0 -0.0037069 	0.0649623 	0 -0.00341267 	0.0670162 	0 -0.00357245 	0.0679462 	0 -0.00381206 	0.0686258 	0 -0.0041209 	0.0683386 	0 -0.00460311 	0.0657202 	0 -0.00432172 	0.0681219 	0 -0.00442927 	0.0697675 	0 -0.00486908 	0.070647 	0 -0.00541977 	0.0691131 	0 -0.00603628 	0.0657951 	0 -0.00579517 	0.0688363 	0 -0.00568618 	0.0717772 	0 -0.0064279 	0.0730167 	0 -0.00722055 	0.0689472 	0 -0.00796692 	0.0643543 	0 -0.00783922 	0.0686514 	0 -0.00773835 	0.0731712 	0 -0.00822306 	0.0726229 	0 -0.00907487 	0.0662865 	0 -0.00981889 	0.0593631 	0 -0.00996087 	0.0662113 	0 -0.0101072 	0.0726738 	0 -0.00937649 	0.0674196 	0 -0.00957008 	0.0582596 	0 -0.00987394 	0.0472609 	0 -0.0105429 	0.0595269 	0 -0.00957178 	0.0558059 	0 -0.00807211 	0.0470625 	0 -0.00657244 	0.038319 	0 -0.00523906 	0.0228088 	0 -0.00573838 	0.0337467 	0 -0.00466412 	0.0274291 	0 -0.00358985 	0.0211115 	0 -0.00251558 	0.0147938 	0 0 	0 	0