# vtk DataFile Version 2.0
track0
ASCII
DATASET POLYDATA
POINTS 17767 float
0.05 8.57988e-20 2.57396e-18
0.05 0.00217391 -1.05592e-17
0.05 0.00217391 -1.05592e-17
0.05 0.00217391 -1.05592e-17
0.05 0.00217391 -1.05592e-17
0.05 0.00217391 -1.05592e-17
0.05 0.00217391 -1.38778e-17
0.0493333 0.00217872 -8.74301e-18
0.0486667 0.00218362 -6.45317e-18
0.048 0.00218917 -1.16545e-17
0.0473334 0.0021969 -1.40669e-17
0.0466667 0.00220687 -1.94289e-17
0.046 0.00221925 -1.77636e-17
0.0453333 0.00223059 -1.75554e-17
0.0446666 0.00224201 -1.52095e-17
0.044 0.00225559 -2.24448e-17
0.0433333 0.00227209 -2.63678e-17
0.0426667 0.00229212 -1.77636e-17
0.0419999 0.00231006 -2.17191e-17
0.0413332 0.00232793 -2.09187e-17
0.0406665 0.00234805 -2.26453e-17
0.04 0.00237149 -3.19189e-17
0.0393333 0.00239955 -2.47025e-17
0.0386665 0.00242461 -2.79635e-17
0.0379998 0.00245001 -2.63126e-17
0.0373331 0.00247783 -2.05951e-17
0.0366667 0.00250901 -1.80411e-17
0.036 0.0025459 -1.36002e-17
0.0353331 0.00257897 -1.47778e-17
0.0346663 0.00261358 -1.39951e-17
0.0339997 0.00265091 -4.41465e-18
0.0333333 0.00269113 -1.38778e-17
0.0326667 0.00273815 -1.69309e-17
0.0319997 0.00278141 -1.51264e-17
0.031333 0.00282771 -1.8051e-17
0.0306665 0.00287717 -1.99459e-17
0.03 0.00292993 -1.38778e-17
0.0293333 0.0029891 -2.38698e-17
0.0286666 0.00304701 -2.62288e-17
0.0280001 0.00310858 -3.00726e-17
0.027334 0.00317396 -2.48279e-17
0.0266667 0.00324347 -3.05311e-17
0.0265055 0.00326144 -3.09337e-17
0.0263443 0.00327938 -3.13364e-17
0.0261832 0.00329756 -3.45145e-17
0.026022 0.003316 -3.07536e-17
0.0258727 0.00333333 -3.05311e-17
0.0253648 0.00339305 -2.48309e-17
0.0248573 0.00345541 -3.46303e-17
0.0243501 0.00352051 -3.4306e-17
0.0238432 0.00358842 -2.72169e-17
0.0233333 0.0036597 -3.10747e-17
0.0226667 0.0037641 -3.40241e-17
0.0220001 0.00386899 -3.41987e-17
0.0213344 0.00397962 -3.90074e-17
0.0206698 0.0040962 -4.25598e-17
0.02 0.00422225 -3.03927e-17
0.0193333 0.00437404 -3.60726e-17
0.0186664 0.00452468 -3.65371e-17
0.0179997 0.0046765 -3.87204e-17
0.0173349 0.00483612 -3.60853e-17
0.0166667 0.00502563 -4.44089e-17
0.016 0.00524745 -4.20497e-17
0.0153341 0.00547156 -3.66354e-17
0.01467 0.00570099 -4.3254e-17
0.014014 0.00595255 -4.39136e-17
0.0133333 0.00624369 -4.85723e-17
0.0131605 0.00632828 -4.88601e-17
0.0129879 0.00641331 -5.07725e-17
0.0128157 0.00649916 -5.74246e-17
0.0126442 0.00658654 -5.43636e-17
0.0124905 0.00666667 -4.996e-17
0.0119924 0.00693155 -4.62378e-17
0.0115035 0.00721314 -4.37903e-17
0.0110251 0.00751204 -4.6116e-17
0.0105581 0.00782859 -4.03661e-17
0.01 0.00824564 -5.21559e-17
0.00958598 0.00859651 -5.58647e-17
0.00918253 0.00895949 -5.06935e-17
0.00879018 0.00933444 -5.22883e-17
0.00840939 0.00972113 -4.93364e-17
0.008151 0.01 -4.3997e-17
0.00785414 0.0103342 -3.9361e-17
0.00757108 0.0106803 -4.6313e-17
0.00730214 0.0110373 -4.33927e-17
0.00704575 0.0114036 -5.03356e-17
0.00666667 0.011983 -4.996e-17
0.0065075 0.0122531 -5.7164e-17
0.00635277 0.0125257 -5.46461e-17
0.00620242 0.0128008 -5.35087e-17
0.00605634 0.0130781 -5.44947e-17
0.00592381 0.0133333 -4.996e-17
0.00558063 0.014 -4.96825e-17
0.00527649 0.0146854 -4.77013e-17
0.00501092 0.0153866 -4.95316e-17
0.00476312 0.0160942 -4.72445e-17
0.00456348 0.0166667 -3.78666e-17
0.00433167 0.0173333 -4.19151e-17
0.00413629 0.0180116 -3.7606e-17
0.00395978 0.018695 -3.58793e-17
0.00379241 0.0193807 -4.23837e-17
0.00364955 0.02 -4.20174e-17
0.0035863 0.020273 -5.35479e-17
0.00352824 0.0205472 -5.45775e-17
0.00347147 0.0208216 -5.29851e-17
0.00341597 0.0210963 -5.03536e-17
0.00333333 0.0215151 -4.96601e-17
0.00326411 0.0218788 -4.86875e-17
0.00319687 0.0222428 -4.87995e-17
0.00313156 0.0226071 -3.91938e-17
0.00306811 0.0229718 -3.65239e-17
0.00300705 0.0233333 -4.30211e-17
0.00289132 0.024 -4.20497e-17
0.00278711 0.0246686 -4.3857e-17
0.00268866 0.025338 -4.48802e-17
0.00259559 0.0260082 -3.44557e-17
0.00250761 0.0266667 -2.498e-17
0.00240845 0.0273333 -2.26208e-17
0.00232473 0.0280021 -1.95624e-17
0.00225016 0.028672 -1.42939e-17
0.00217966 0.0293423 -9.18098e-18
0.00210453 0.03 -5.55112e-18
0.00201719 0.0306667 -6.66134e-18
0.00194588 0.0313352 -6.38695e-18
0.00188971 0.0320053 -4.53478e-18
0.00183508 0.0326754 -3.92338e-18
0.00176964 0.0333333 -9.71445e-18
0.00169087 0.034 -1.4988e-17
0.00162905 0.0346685 -1.43693e-17
0.00158295 0.0353382 -1.39745e-17
0.00153766 0.0360079 -1.24141e-17
0.00147993 0.0366667 -2.09436e-19
0.00140741 0.0373333 -1.47645e-18
0.00135327 0.0380017 8.68851e-19
0.00131578 0.0386713 -1.9506e-18
0.00127869 0.0393409 -5.90712e-18
0.00122751 0.04 -3.08506e-18
0.00115957 0.0406667 -3.6658e-18
0.00111204 0.0413351 -3.6184e-18
0.00107712 0.0420043 -4.72562e-18
0.00104219 0.0426735 -3.17961e-18
0.000997146 0.0433333 -1.66058e-18
0.000932525 0.044 2.61037e-18
0.000891321 0.0446685 -3.01646e-19
0.000857923 0.0453375 -2.99063e-18
0.000824524 0.0460064 -4.93056e-18
0.000786012 0.0466667 2.16047e-18
0.000723731 0.0473333 2.95808e-18
0.000689352 0.048002 1.14841e-17
0.000656968 0.0486708 7.07078e-18
0.000624584 0.0493396 3.18147e-18
0.000592606 0.05 4.56423e-18
0.000531854 0.0506667 8.72465e-18
0.000500043 0.0513353 8.32994e-18
0.000468232 0.052004 4.29543e-18
0.000436421 0.0526727 7.3452e-18
0.000404992 0.0533333 1.18156e-17
0.000345047 0.054 6.43366e-18
0.000313384 0.0546686 4.47735e-18
0.000281721 0.0553372 1.05407e-17
0.000250057 0.0560058 8.03942e-18
0.000218762 0.0566667 7.96236e-18
0.000175009 0.0571541 5.20294e-19
0.000151634 0.0576429 6.23052e-18
0.000128259 0.0581318 2.2263e-18
0.000104884 0.0586206 9.09365e-19
3.89248e-05 0.06 4.09851e-18
3.11398e-05 0.0600858 -4.29385e-19
2.6916e-05 0.0601719 -1.66683e-18
2.26921e-05 0.0602579 2.82032e-18
1.84682e-05 0.060344 1.23594e-18
0 0.0607202 5.36272e-18
0.05 0.00434783 5.94331e-18
0.0493333 0.00435375 6.62733e-18
0.0486667 0.00436133 6.61472e-18
0.0480001 0.00437032 7.49392e-18
0.0473334 0.00438051 1.06949e-17
0.0466667 0.00439309 6.56183e-18
0.046 0.00440909 7.92295e-18
0.0453334 0.00442581 9.97679e-18
0.0446667 0.00444341 6.8005e-18
0.0440001 0.00446223 5.31114e-18
0.0433333 0.00448434 1.14836e-17
0.0426667 0.00451089 1.40891e-17
0.042 0.00453734 1.42653e-17
0.0413333 0.00456397 1.82493e-17
0.0406667 0.00459189 1.28525e-17
0.04 0.00462456 1.51969e-17
0.0393333 0.0046628 1.33985e-17
0.0386666 0.00470027 9.17277e-18
0.0379999 0.00473696 1.39951e-17
0.0373332 0.00477545 1.58633e-17
0.0366667 0.00482045 1.22024e-17
0.036 0.00487235 8.47459e-18
0.0353332 0.00492293 6.58138e-18
0.0346664 0.00497221 4.78713e-18
0.0339997 0.00502444 6.49454e-18
0.0333333 0.00508458 1.38778e-17
0.0326667 0.00515313 9.29812e-18
0.0319998 0.00522003 1.26986e-17
0.0313328 0.00528527 7.8516e-18
0.0306663 0.00535513 7.73526e-18
0.03 0.00543456 -6.93889e-18
0.0293333 0.0055242 -3.88578e-18
0.0286664 0.00561211 -7.14668e-18
0.0279997 0.00570132 -8.75517e-18
0.0273339 0.00579725 -7.57269e-18
0.0266667 0.00590225 -6.93889e-18
0.026 0.00601949 -1.06859e-17
0.0253331 0.00613549 -1.1657e-17
0.0246677 0.00625961 -9.55796e-18
0.0240039 0.00639234 -9.40145e-18
0.0233333 0.00653604 -6.93889e-18
0.0232205 0.00656217 -6.75096e-18
0.0231076 0.00658829 -1.07264e-17
0.0229948 0.00661469 -7.76298e-18
0.0228821 0.00664138 -1.17386e-17
0.0227765 0.00666667 -1.249e-17
0.0222212 0.00680105 -1.41016e-17
0.0216678 0.00694285 -1.01744e-17
0.0211163 0.00709241 -1.10892e-17
0.0205672 0.00725006 -1.63228e-17
0.02 0.0074225 -2.03164e-17
0.0193333 0.00764591 -2.60033e-17
0.0186705 0.00788045 -2.88869e-17
0.0180122 0.0081274 -2.79106e-17
0.0173599 0.00838996 -2.71994e-17
0.0166667 0.00869893 -2.498e-17
0.0161429 0.00895915 -2.16889e-17
0.015624 0.00922888 -2.60192e-17
0.0151111 0.00950992 -3.2104e-17
0.0146065 0.00980556 -3.2898e-17
0.0142963 0.01 -3.14409e-17
0.0141037 0.0101259 -2.41812e-17
0.0139129 0.0102545 -3.2884e-17
0.0137239 0.0103857 -2.56304e-17
0.0135368 0.0105196 -2.7229e-17
0.0133333 0.0106703 -2.67902e-17
0.0126667 0.0111831 -3.25014e-17
0.0120243 0.011726 -3.61806e-17
0.0114082 0.0122985 -3.58073e-17
0.0108204 0.0129001 -2.91925e-17
0.010436 0.0133333 -2.93365e-17
0.0103488 0.0134382 -2.70775e-17
0.0102627 0.013544 -3.038e-17
0.0101776 0.0136506 -3.02984e-17
0.0100935 0.013758 -2.78979e-17
0.01 0.0138796 -2.62751e-17
0.00958048 0.014437 -2.69875e-17
0.00918318 0.0150105 -3.25853e-17
0.00880788 0.0155986 -2.61172e-17
0.0084532 0.0161993 -2.30112e-17
0.00819229 0.0166667 -1.70057e-17
0.00788717 0.0172366 -1.36045e-17
0.00760509 0.0178183 -1.56247e-17
0.00734322 0.0184094 -1.59429e-17
0.00709542 0.0190065 -1.63595e-17
0.00670897 0.02 -2.20988e-17
0.00670051 0.0200241 -1.65688e-17
0.00669208 0.0200482 -1.4924e-17
0.00668368 0.0200724 -1.2181e-17
0.0066753 0.0200965 -1.22569e-17
0.00666667 0.0201215 -2.19011e-17
0.00644489 0.0207638 -7.11252e-18
0.00623674 0.0214107 -8.79249e-18
0.00604133 0.0220616 -5.89862e-18
0.00585776 0.0227159 -2.81624e-18
0.00569262 0.0233333 0
0.00551184 0.024 -4.16334e-19
0.00535069 0.0246717 8.93703e-19
0.00520768 0.0253475 8.68443e-19
0.00507139 0.0260246 -5.67e-18
0.00493765 0.0266667 -8.13547e-18
0.00479451 0.0273333 -1.16155e-17
0.00466918 0.0280036 -1.54725e-17
0.0045603 0.0286767 -1.61843e-17
0.00445444 0.0293503 -1.51744e-17
0.00434787 0.03 -1.48734e-17
0.00423283 0.0306667 -1.67635e-17
0.00413397 0.0313359 -1.15986e-17
0.00404149 0.0320061 -2.99387e-18
0.00395148 0.0326766 -3.06965e-18
0.00386571 0.0333333 1.88897e-18
0.00377236 0.034 5.93021e-18
0.00369017 0.0346681 1.62863e-18
0.0036101 0.0353365 -2.98904e-18
0.00353207 0.0360052 -7.91893e-18
0.00345686 0.0366667 -1.54713e-17
0.00343215 0.0368835 -1.28138e-17
0.00340831 0.0371005 -1.60557e-17
0.00338466 0.0373175 -1.77366e-17
0.0033612 0.0375345 -1.31728e-17
0.00333333 0.0377944 -1.99192e-17
0.00328649 0.0382355 -2.08273e-17
0.00324039 0.0386767 -1.40326e-17
0.00319502 0.039118 -1.96592e-17
0.00315036 0.0395593 -1.55703e-17
0.00310648 0.04 -1.249e-17
0.00303853 0.0406667 -1.91513e-17
0.00297473 0.0413337 -1.78336e-17
0.00291237 0.042001 -1.73544e-17
0.0028514 0.0426683 -4.96592e-18
[...]
POINT_DATA 17767
 FIELD attributes 1
U 3 17767 float
-3.82663e-19 	5.65986e-22 	0
-0.00864474 	6.23458e-05 	0 -0.00864474 	6.23458e-05 	0 -0.00864474 	6.23458e-05 	0 -0.00864474 	6.23458e-05 	0 -0.00864474 	6.23458e-05 	0 -0.00864474 	6.23458e-05 	0 -0.00895195 	6.57756e-05 	0 -0.00916658 	7.63417e-05 	-1.4961e-24 -0.00913645 	0.000105909 	-6.97322e-24 -0.00891088 	0.000133302 	-1.24679e-23 -0.0086123 	0.000159926 	-1.79813e-23 -0.00891246 	0.000151554 	6.73728e-22 -0.00908922 	0.000155661 	1.12471e-21 -0.00903473 	0.000184137 	1.10849e-21 -0.00883229 	0.000218603 	6.63401e-22 -0.0085494 	0.000256763 	-3.2838e-23 -0.0088365 	0.000237865 	5.0707e-22 -0.0089552 	0.000240029 	8.5055e-22 -0.00887965 	0.000267904 	9.56749e-22 -0.00871015 	0.000306301 	8.03211e-22 -0.00844842 	0.000355595 	3.8466e-22 -0.00871714 	0.000327611 	2.81077e-22 -0.00875928 	0.000333721 	2.99693e-22 -0.00866669 	0.00036164 	3.95634e-22 -0.00853365 	0.000399244 	5.23321e-22 -0.00829798 	0.000459161 	7.24864e-22 -0.00854355 	0.000423708 	5.42918e-22 -0.00849315 	0.000440911 	4.29031e-22 -0.00838803 	0.000469665 	3.30221e-22 -0.00828763 	0.000500178 	2.37181e-22 -0.00808237 	0.0005701 	3.21628e-22 -0.00826755 	0.0005362 	3.13391e-22 -0.00814702 	0.000565749 	2.33201e-22 -0.00803429 	0.000596245 	1.53059e-22 -0.00792969 	0.000627724 	7.29685e-23 -0.00778693 	0.000691129 	-3.56002e-24 -0.00783725 	0.000680708 	1.13213e-23 -0.00771395 	0.000712663 	9.42348e-24 -0.00759895 	0.000745864 	7.36829e-24 -0.00749259 	0.00078036 	5.14925e-24 -0.00739099 	0.000824189 	-1.07515e-24 -0.00739417 	0.000822742 	-9.54805e-25 -0.0073635 	0.000830955 	-7.61125e-25 -0.00733332 	0.000839259 	-5.67356e-25 -0.00730364 	0.000847655 	-3.73496e-25 -0.00727658 	0.000855524 	-1.93691e-25 -0.00718706 	0.000883074 	3.60259e-25 -0.00710276 	0.000911603 	9.12558e-25 -0.00702385 	0.000941141 	1.46314e-24 -0.00695049 	0.000971717 	2.01193e-24 -0.0067794 	0.00106157 	6.84542e-24 -0.00665363 	0.00104703 	4.86562e-23 -0.00654294 	0.00108736 	6.04285e-23 -0.00644157 	0.00112987 	7.28005e-23 -0.0063249 	0.00119039 	7.88818e-23 -0.00603212 	0.00137336 	3.37701e-23 -0.00589611 	0.00133181 	1.1722e-22 -0.00577192 	0.00131442 	1.83912e-22 -0.00568237 	0.00136428 	2.05596e-22 -0.00542844 	0.00153946 	1.37752e-22 -0.00520181 	0.00173081 	7.0636e-23 -0.00507955 	0.00170954 	1.59309e-22 -0.00493872 	0.00170624 	2.31159e-22 -0.00468736 	0.00179743 	2.10503e-22 -0.00446429 	0.00190952 	1.83931e-22 -0.00430639 	0.00210784 	1.10935e-22 -0.00428141 	0.00210888 	1.31155e-22 -0.00424824 	0.00211778 	1.40323e-22 -0.00420037 	0.00214084 	1.29572e-22 -0.00415386 	0.00216486 	1.18707e-22 -0.00411321 	0.00218737 	1.08814e-22 -0.00395562 	0.00227853 	8.40615e-23 -0.00381154 	0.00238118 	5.85741e-23 -0.00368192 	0.00249587 	3.23411e-23 -0.0035178 	0.00262865 	2.81791e-23 -0.00331969 	0.00281335 	3.06431e-23 -0.00321035 	0.00288828 	1.72829e-23 -0.00311237 	0.00297434 	3.89581e-24 -0.00301234 	0.00305907 	2.6032e-23 -0.00291853 	0.0031499 	6.27403e-23 -0.00286116 	0.00322136 	8.84378e-23 -0.00273475 	0.003343 	8.66503e-23 -0.00261927 	0.00347783 	8.36391e-23 -0.00251491 	0.00359231 	7.94319e-23 -0.00242027 	0.00369948 	7.41929e-23 -0.00228736 	0.00388099 	6.46317e-23 -0.00224174 	0.0039501 	1.05009e-22 -0.00219926 	0.00402343 	1.43774e-22 -0.00215985 	0.00410084 	1.80961e-22 -0.00215332 	0.0041465 	9.77174e-23 -0.00215356 	0.0041835 	8.91388e-26 -0.00192723 	0.00434291 	-2.54918e-22 -0.00171973 	0.00454072 	-5.17076e-22 -0.00166937 	0.00476741 	-5.53945e-22 -0.00171523 	0.00491817 	-4.33869e-22 -0.00175282 	0.00504094 	-3.36646e-22 -0.00152862 	0.00530628 	-2.51697e-22 -0.00141489 	0.00547794 	-1.73236e-22 -0.00136463 	0.00559086 	-9.91646e-23 -0.00131863 	0.00571658 	-2.34208e-23 -0.00136112 	0.00587596 	-4.57534e-23 -0.00127666 	0.00602781 	0 -0.00125766 	0.00607994 	0 -0.00123934 	0.00613447 	0 -0.00122168 	0.00619135 	0 -0.00119576 	0.00628149 	0 -0.00117477 	0.00636004 	0 -0.0011548 	0.00644236 	0 -0.00113582 	0.00652833 	0 -0.0011178 	0.00661781 	0 -0.00114229 	0.00658036 	0 -0.00104277 	0.0066896 	0 -0.00100909 	0.00686164 	0 -0.000978671 	0.00704746 	0 -0.000962767 	0.00720588 	0 -0.00104574 	0.00703027 	0 -0.000897299 	0.00716806 	0 -0.000820048 	0.0073668 	0 -0.000799903 	0.00760526 	0 -0.00086195 	0.00754629 	0 -0.000958715 	0.0073179 	0 -0.000801367 	0.007513 	0 -0.000650986 	0.00776526 	0 -0.000650408 	0.00797791 	0 -0.000769719 	0.0077395 	0 -0.000880986 	0.00745573 	0 -0.000713288 	0.00771301 	0 -0.000553688 	0.00804331 	0 -0.000544242 	0.00804812 	0 -0.000680787 	0.00776824 	0 -0.000807881 	0.00742683 	0 -0.000627865 	0.00775196 	0 -0.000457515 	0.00817114 	0 -0.000441114 	0.00796306 	0 -0.000593674 	0.00764611 	0 -0.000738421 	0.00724564 	0 -0.000543671 	0.0076455 	0 -0.000412278 	0.00789997 	0 -0.00039933 	0.00765187 	0 -0.000499566 	0.00731752 	0 -0.000664839 	0.00685885 	0 -0.00045251 	0.00734185 	0 -0.000368005 	0.00737099 	0 -0.000354216 	0.00709479 	0 -0.000394783 	0.00676786 	0 -0.000584576 	0.00625738 	0 -0.000351354 	0.00683397 	0 -0.000319426 	0.00659677 	0 -0.00030442 	0.00628687 	0 -0.000289414 	0.00597698 	0 -0.000495135 	0.00543341 	0 -0.000279059 	0.00586584 	0 -0.000262368 	0.005515 	0 -0.000245677 	0.00516415 	0 -0.000228986 	0.0048133 	0 -0.000383268 	0.00426248 	2.36936e-37 -0.000207214 	0.00437557 	0 -0.000188199 	0.00397405 	0 -0.000169184 	0.00357252 	0 -0.000150169 	0.003171 	0 -0.000236788 	0.002638 	2.41987e-40 -0.000121921 	0.00254971 	0 -0.000105637 	0.00220916 	0 -8.93526e-05 	0.00186861 	0 -7.30682e-05 	0.00152805 	0 -4.87669e-05 	0.000537488 	-2.27295e-38 -2.56052e-05 	0.000521646 	0 -2.21321e-05 	0.000450889 	0 -1.86589e-05 	0.000380132 	0 -1.51858e-05 	0.000309375 	0 0 	0 	0
-0.0164672 	0.000146445 	0 -0.0166847 	0.000189565 	0 -0.0167939 	0.000226523 	-2.48772e-24 -0.0167763 	0.000256349 	-7.8461e-24 -0.0166027 	0.000313269 	-6.52506e-23 -0.0163117 	0.000391591 	-1.63546e-22 -0.0164892 	0.000413415 	-7.98778e-22 -0.0165892 	0.000438037 	-1.20686e-21 -0.0165567 	0.000467357 	-1.22994e-21 -0.0163297 	0.000541472 	-8.64318e-22 -0.0160163 	0.000637934 	-3.10807e-22 -0.0161528 	0.000640894 	-7.09666e-22 -0.0162521 	0.000649204 	-1.00946e-21 -0.0162065 	0.000678767 	-9.18159e-22 -0.0159102 	0.000779512 	-3.9824e-22 -0.0155831 	0.000894034 	1.95107e-22 -0.0156791 	0.000881086 	1.04572e-21 -0.0157727 	0.000867898 	1.8966e-21 -0.0156946 	0.00090611 	1.9696e-21 -0.0153453 	0.00103618 	1.25283e-21 -0.0150137 	0.00116869 	5.34285e-22 -0.0150708 	0.00114334 	9.68436e-22 -0.0151244 	0.0011175 	1.40303e-21 -0.0149843 	0.00117405 	1.32272e-21 -0.0146377 	0.00132106 	7.43651e-22 -0.0143108 	0.00147149 	1.63731e-22 -0.0143321 	0.00143788 	5.98658e-24 -0.0143493 	0.00140354 	-1.51574e-22 -0.0141178 	0.00147965 	-1.69593e-22 -0.013784 	0.00164322 	-1.06698e-22 -0.0134714 	0.00181142 	-4.40073e-23 -0.0134609 	0.00177436 	-6.07802e-23 -0.0133477 	0.00178596 	-6.71106e-23 -0.0130684 	0.00188286 	-5.56595e-23 -0.0127883 	0.00201237 	-3.9351e-23 -0.0124993 	0.00219819 	-1.4398e-23 -0.0124565 	0.0021667 	-1.08572e-23 -0.0121704 	0.00227017 	2.70896e-24 -0.0118982 	0.00237931 	1.6312e-23 -0.0116409 	0.00249446 	2.99518e-23 -0.0113947 	0.00263788 	4.31962e-23 -0.011383 	0.00263477 	5.3442e-23 -0.0113362 	0.00265375 	5.39868e-23 -0.0112898 	0.00267294 	5.45129e-23 -0.0112438 	0.00269232 	5.50203e-23 -0.0112012 	0.00271069 	5.54781e-23 -0.0109793 	0.00281293 	5.98986e-23 -0.0107687 	0.00292075 	6.39428e-23 -0.0105699 	0.00303439 	6.75909e-23 -0.01038 	0.00315576 	7.10416e-23 -0.0100324 	0.00336211 	8.38896e-23 -0.00976397 	0.00345491 	5.49202e-23 -0.00951824 	0.00357047 	3.02734e-23 -0.00928747 	0.00373864 	2.07706e-23 -0.00893119 	0.00398044 	3.61267e-23 -0.00857842 	0.00426201 	5.12705e-23 -0.00840091 	0.00436686 	2.03773e-23 -0.00819907 	0.00449284 	0 -0.0079418 	0.00465302 	0 -0.00770272 	0.00482719 	0 -0.00756499 	0.00494526 	0 -0.00747337 	0.00503571 	0 -0.00738511 	0.00512904 	0 -0.00730025 	0.00522525 	0 -0.00718441 	0.00532138 	0 -0.00706063 	0.00543072 	0 -0.00672108 	0.00567999 	0 -0.0064205 	0.0059669 	0 -0.00610625 	0.00624906 	0 -0.00581585 	0.0065549 	0 -0.00564526 	0.00679116 	0 -0.00559449 	0.00686848 	0 -0.00554505 	0.00694716 	0 -0.00549186 	0.00701331 	1.00747e-23 -0.00543803 	0.00707558 	2.38827e-23 -0.0053789 	0.00714697 	3.93886e-23 -0.00513654 	0.00741377 	4.93314e-23 -0.00492078 	0.00771105 	6.20319e-23 -0.00473473 	0.00801955 	7.44217e-23 -0.00459749 	0.00823513 	6.94051e-23 -0.00450499 	0.00841497 	6.69424e-23 -0.00425766 	0.00878003 	1.19523e-22 -0.00404556 	0.00913159 	1.19606e-22 -0.00389075 	0.00937536 	-4.62148e-23 -0.00374928 	0.00963865 	-2.07695e-22 -0.00354494 	0.0101053 	-4.90741e-22 -0.00353666 	0.0101264 	-5.09809e-22 -0.00353034 	0.0101411 	-5.06491e-22 -0.00352486 	0.0101532 	-4.9366e-22 -0.00351941 	0.0101653 	-4.80853e-22 -0.00351379 	0.0101778 	-4.67659e-22 -0.00337162 	0.0104786 	-3.52765e-22 -0.00324346 	0.0108036 	-2.39622e-22 -0.00312836 	0.0111509 	-1.28152e-22 -0.00306342 	0.0114526 	-4.5978e-23 -0.00312961 	0.011541 	-5.68814e-23 -0.00285944 	0.0119184 	-3.64498e-23 -0.0026107 	0.0123369 	-2.25428e-24 -0.00256414 	0.0127397 	3.50269e-22 -0.00267885 	0.0128605 	6.91532e-22 -0.0027837 	0.0129648 	1.01225e-21 -0.00251493 	0.0134495 	5.01297e-22 -0.00226113 	0.0139782 	0 -0.00222026 	0.0141274 	0 -0.00234003 	0.0142674 	2.72503e-25 -0.00248263 	0.0143866 	5.86496e-25 -0.00221416 	0.0149895 	1.34597e-25 -0.00211087 	0.0152959 	0 -0.00207731 	0.0154746 	0 -0.00204541 	0.015662 	0 -0.00221267 	0.0158015 	-2.58632e-22 -0.00201281 	0.0163635 	0 -0.00198477 	0.0165677 	0 -0.00195828 	0.0167808 	0 -0.00193331 	0.0170023 	0 -0.00196033 	0.0172094 	1.78834e-22 -0.00191113 	0.0173925 	0 -0.00190405 	0.0174703 	0 -0.00189712 	0.017549 	0 -0.00189035 	0.0176287 	0 -0.00188242 	0.0177252 	0 -0.00186892 	0.0178872 	0 -0.00185604 	0.0180529 	0 -0.00184376 	0.0182222 	0 -0.00183206 	0.0183951 	0 -0.00186873 	0.0183366 	0 -0.00178405 	0.0186526 	0 -0.00177027 	0.0189413 	0 -0.00175779 	0.0192383 	0 -0.00174656 	0.0195433 	0 -0.00186152 	0.0192045 	0 -0.00166927 	0.0196687 	0 -0.00166414 	0.020019 	0 -0.00166017 	0.020377 	0 -0.0016848 	0.0205916 	0 -0.00186413 	0.0199539 	0 -0.00163091 	0.0205305 	0 -0.00155022 	0.0210249 	0 -0.00155658 	0.0214592 	0 -0.0016693 	0.0212944 	0 -0.0018728 	0.0205514 	0 -0.00161482 	0.0212346 	0 -0.00142008 	0.021945 	7.65233e-38 -0.00143978 	0.0224765 	4.42058e-37 -0.00165471 	0.0218465 	8.07863e-37 -0.00188678 	0.0209836 	1.16641e-36 -0.0015995 	0.0217902 	7.41309e-37 -0.00132227 	0.0227139 	3.22091e-37 -0.00135667 	0.0230872 	5.69666e-40 -0.00163615 	0.0221979 	1.26538e-39 -0.0019026 	0.0211965 	1.94438e-39 -0.00158067 	0.0221483 	1.14074e-39 -0.00127155 	0.0232497 	3.49503e-40 -0.00128164 	0.023295 	-1.65283e-37 -0.0016073 	0.0222789 	-5.34076e-37 -0.00191582 	0.0211153 	-8.92932e-37 -0.00155298 	0.0222423 	-4.68322e-37 -0.00120703 	0.023564 	-5.11576e-38 -0.00117847 	0.0231949 	0 -0.00156281 	0.0220371 	0 -0.00192369 	0.0206804 	0 -0.001513 	0.022025 	0 -0.0011904 	0.0231561 	0 -0.00115627 	0.0224922 	0 -0.00148303 	0.0212944 	0 -0.00191089 	0.019704 	0 -0.00144562 	0.0213295 	0 -0.00120371 	0.0217984 	0 -0.00115808 	0.0209722 	0 -0.00133451 	0.0198055 	0 -0.00185082 	0.0179333 	0 -0.00132743 	0.0199402 	0 -0.00118852 	0.0194 	0 -0.00112293 	0.0183292 	0 -0.00105795 	0.0172575 	0 -0.00169749 	0.0150685 	0 -0.00119038 	0.0168279 	0 -0.00108699 	0.0153663 	0 -0.000983592 	0.0139047 	0 -0.000880199 	0.012443 	0 -0.00128315 	0.0101256 	0 -0.000904209 	0.0105913 	0 -0.000751256 	0.00879969 	0 -0.000598303 	0.0070081 	0 -0.00044535 	0.00521652 	0 -0.000239902 	0.00163038 	0 -0.000190625 	0.00178107 	0 -0.000155787 	0.00145557 	0 -0.000120949 	0.00113006 	0 -8.6111e-05 	0.000804562 	0 0 	0 	0
-0.0233499 	0.000255405 	0 -0.0233489 	0.000336158 	-7.23946e-23 -0.0232933 	0.000427476 	-1.64933e-22 -0.0232449 	0.000519108 	-2.57827e-22 -0.0232038 	0.000611054 	-3.51075e-22 -0.023139 	0.000701668 	-4.45418e-22 -0.0230883 	0.000766823 	-5.62003e-22 -0.0230061 	0.000840402 	-6.07096e-22 -0.0229287 	0.000914407 	-6.5088e-22 -0.0228563 	0.000988841 	-6.93342e-22 -0.0228381 	0.00100909 	-7.04466e-22 -0.0228154 	0.00103609 	-7.2202e-22 -0.0227933 	0.00106314 	-7.3948e-22 -0.022772 	0.00109026 	-7.56847e-22 -0.0227513 	0.00111743 	-7.74121e-22 -0.0227149 	0.00114909 	-7.97605e-22 -0.022586 	0.00123865 	-6.89549e-22 -0.0224534 	0.00132857 	-5.85378e-22 -0.0223286 	0.0014195 	-4.80229e-22 -0.0222118 	0.00151146 	-3.74087e-22 -0.0220156 	0.0016311 	-2.82865e-22 -0.0218957 	0.00172061 	-6.43992e-22 -0.0217326 	0.00181353 	-6.38284e-22 -0.0215778 	0.0019079 	-6.36599e-22 -0.0214315 	0.00200374 	-6.39022e-22 -0.0211095 	0.00216344 	1.63658e-22 -0.0210032 	0.00224548 	-5.67422e-22 -0.0208169 	0.00234456 	-6.44963e-22 -0.0206397 	0.00244567 	-7.26062e-22 -0.0204219 	0.00256731 	-6.49995e-22 -0.0200085 	0.00276842 	8.53308e-23 -0.019872 	0.00284763 	1.93426e-23 -0.0197122 	0.00294107 	-1.81837e-23 -0.0195213 	0.00305288 	-1.85677e-23 -0.019141 	0.0032477 	-2.77726e-23 -0.018726 	0.00346992 	-3.90254e-23 -0.0185575 	0.00355583 	-2.30387e-23 -0.0183969 	0.0036448 	-6.98539e-24 -0.0180943 	0.00380841 	-1.15849e-24 -0.0176786 	0.00404365 	-4.04274e-24 -0.017277 	0.00429196 	-6.89733e-24 -0.0170897 	0.00439322 	-2.31474e-24 -0.0168015 	0.00454823 	0 -0.0164151 	0.0047608 	0 -0.0160476 	0.00498417 	0 -0.0156784 	0.00525463 	4.49973e-24 -0.0156212 	0.00529248 	9.14591e-25 -0.0155198 	0.00535121 	0 -0.0154046 	0.0054179 	0 -0.0152911 	0.00548574 	0 -0.0151944 	0.00554552 	0 -0.014933 	0.00572494 	0 -0.0146829 	0.00591209 	0 -0.0144448 	0.0061072 	0 -0.0141723 	0.00632453 	0 -0.0138113 	0.00659208 	0 -0.0134404 	0.00684813 	0 -0.0130944 	0.00712376 	0 -0.0126833 	0.00743647 	0 -0.0122546 	0.00779899 	0 -0.0117956 	0.00824766 	0 -0.0117228 	0.00832307 	0 -0.0116516 	0.00839983 	0 -0.0115551 	0.00847559 	0 -0.0114588 	0.00855273 	0 -0.0113739 	0.00862335 	0 -0.0110191 	0.00896219 	0 -0.0106889 	0.00932518 	0 -0.0103716 	0.00970408 	7.32838e-24 -0.0100164 	0.010066 	5.15153e-23 -0.00958473 	0.0105734 	1.09676e-22 -0.00946959 	0.0107234 	1.10624e-22 -0.00935871 	0.0108775 	1.11824e-22 -0.00924657 	0.0110207 	1.24141e-22 -0.00912942 	0.0111429 	1.54732e-22 -0.0090284 	0.0112552 	1.82187e-22 -0.00863401 	0.0117528 	3.5385e-22 -0.00827537 	0.0122908 	5.30192e-22 -0.0079416 	0.0127408 	1.49696e-22 -0.00763538 	0.0131853 	-3.93392e-22 -0.00732665 	0.0137573 	-1.12214e-21 -0.00729654 	0.0138271 	-1.22034e-21 -0.00726701 	0.0138918 	-1.2743e-21 -0.00723845 	0.0139414 	-1.20334e-21 -0.00721017 	0.0139915 	-1.13266e-21 -0.00718027 	0.0140452 	-1.05748e-21 -0.00693034 	0.0144706 	-1.18074e-21 -0.00670245 	0.0149228 	-1.28724e-21 -0.00649551 	0.0153999 	-1.37787e-21 -0.00635694 	0.0157372 	-8.8469e-22 -0.00626751 	0.0159765 	-1.75601e-22 -0.00596045 	0.0165725 	6.7242e-22 -0.0056765 	0.0172049 	1.52854e-21 -0.00549605 	0.0175934 	1.92647e-21 -0.0054309 	0.0179435 	2.33833e-21 -0.00539343 	0.0182734 	2.73512e-21 -0.00517034 	0.0189068 	3.6751e-21 -0.00503919 	0.0192919 	3.0624e-21 -0.00492871 	0.0196481 	2.21264e-21 -0.00482509 	0.0200177 	1.38017e-21 -0.00467075 	0.0206257 	8.31408e-23 -0.00466682 	0.020643 	6.32131e-23 -0.00466289 	0.0206603 	4.32899e-23 -0.00465898 	0.0206777 	2.33713e-23 -0.00465507 	0.020695 	3.45718e-24 -0.0046586 	0.0206967 	1.91016e-24 -0.00453717 	0.0211553 	-2.35407e-22 -0.0044356 	0.0216308 	-4.90852e-22 -0.00434216 	0.022124 	-7.49838e-22 -0.00425635 	0.0226337 	-1.01213e-21 -0.00438016 	0.0226881 	-1.27193e-21 -0.00407362 	0.0233063 	-8.85529e-22 -0.00393131 	0.0239056 	3.87345e-23 -0.00387103 	0.0244988 	1.22821e-21 -0.00397662 	0.0247114 	2.17056e-21 -0.00415527 	0.0247211 	2.96893e-21 -0.00384124 	0.025465 	1.8415e-21 -0.00353949 	0.0262557 	7.27734e-22 -0.0035241 	0.0267636 	9.5403e-25 -0.00375207 	0.0267977 	2.27849e-24 -0.003969 	0.0268063 	3.56633e-24 -0.00364467 	0.0276933 	1.8245e-24 -0.00333339 	0.0286324 	1.03753e-25 -0.0032912 	0.0288978 	0 -0.00354957 	0.0289484 	-3.61339e-21 -0.0038091 	0.0289598 	-7.30234e-21 -0.0034718 	0.0300121 	-2.49294e-21 -0.00329045 	0.0307011 	0 -0.00327137 	0.0309623 	0 -0.00335127 	0.0311592 	-1.68522e-24 -0.00365954 	0.0311793 	-7.31628e-24 -0.0033071 	0.0324247 	-2.10371e-25 -0.00328383 	0.0327558 	0 -0.00327153 	0.0330653 	0 -0.00326019 	0.0333813 	0 -0.00351211 	0.0334891 	2.08042e-21 -0.00329502 	0.034467 	1.8357e-37 -0.00329015 	0.0348296 	6.11276e-37 -0.00328623 	0.0351986 	1.03858e-36 -0.00328321 	0.0355739 	1.46551e-36 -0.00335247 	0.0358902 	1.95013e-36 -0.00329901 	0.0362146 	2.15752e-36 -0.00330089 	0.036357 	1.94766e-36 -0.00330286 	0.0365001 	1.73806e-36 -0.00330493 	0.0366439 	1.52873e-36 -0.00330734 	0.0368059 	1.29422e-36 -0.00331075 	0.0370905 	1.01283e-36 -0.00331453 	0.0373779 	7.31582e-37 -0.00331868 	0.0376678 	4.50473e-37 -0.00332319 	0.0379602 	1.69497e-37 -0.00339584 	0.0378323 	3.4704e-39 -0.0033024 	0.0384717 	-2.37224e-37 -0.00332227 	0.0389917 	-5.94019e-37 -0.00334284 	0.0395166 	-9.51081e-37 -0.00336407 	0.040046 	-1.3084e-36 -0.00357195 	0.0393684 	-1.66483e-36 -0.0032896 	0.0403805 	-1.24022e-36 -0.00333237 	0.0410251 	-8.18882e-37 -0.00337544 	0.0416719 	-3.9763e-37 -0.00343616 	0.0422019 	0 -0.00378852 	0.040728 	0 -0.00337782 	0.0420726 	0 -0.00333243 	0.0430303 	0 -0.0034105 	0.0438398 	0 -0.00363874 	0.0435485 	0 -0.00405213 	0.0417834 	0 -0.00358687 	0.0434089 	0 -0.00330489 	0.0449545 	0 -0.00344003 	0.0459885 	0 -0.00388369 	0.0445301 	0 -0.00437341 	0.0423756 	0 -0.00385002 	0.0443826 	0 -0.00334959 	0.0466229 	0 -0.0035452 	0.0473269 	0 -0.00416789 	0.0448895 	0 -0.0047523 	0.0421859 	0 -0.00417789 	0.0447454 	0 -0.0036376 	0.0476229 	0 -0.0036884 	0.0472448 	0 -0.00444773 	0.0441134 	0 -0.0051439 	0.0405919 	0 -0.00455373 	0.0440157 	0 -0.00404376 	0.0473658 	0 -0.00386247 	0.0452422 	0 -0.00456905 	0.0413304 	0 -0.00537568 	0.0365334 	0 -0.00486867 	0.0414227 	0 -0.00447181 	0.0417815 	0 -0.00411984 	0.0384929 	0 -0.00400195 	0.0345817 	0 -0.00486258 	0.0278108 	0 -0.0045706 	0.0337014 	0 -0.00384766 	0.0283708 	0 -0.00312473 	0.0230402 	0 -0.00240179 	0.0177096 	0 -0.00214242 	0.0104066 	0 -0.00218113 	0.0133649 	0 -0.00174557 	0.010696 	0 -0.00131001 	0.00802714 	0 -0.000874455 	0.00535824 	0 0 	0 	0