# vtk DataFile Version 2.0
track0
ASCII
DATASET POLYDATA
POINTS 29904 float
0.05 8.57988e-20 2.57396e-18
0.05 0.00217391 -1.05592e-17
0.05 0.00217391 -1.05592e-17
0.05 0.00217391 -1.05592e-17
0.05 0.00217391 -1.05592e-17
0.05 0.00217391 -1.05592e-17
0.05 0.00217391 -1.38778e-17
0.0493333 0.00217726 -7.35523e-18
0.0486667 0.00218113 -5.0654e-18
0.048 0.0021861 -7.49632e-18
0.0473334 0.00219385 -7.81682e-18
0.0466667 0.00220415 -1.80411e-17
0.046 0.00221705 -7.35523e-18
0.0453333 0.00222905 -9.57565e-18
0.0446666 0.00224136 -6.88394e-18
0.044 0.00225636 -9.25576e-18
0.0433333 0.00227471 -6.93889e-18
0.0426667 0.00229697 -3.19189e-18
0.0419999 0.00231705 -1.5964e-18
0.0413332 0.00233724 -2.24557e-18
0.0406666 0.0023601 -4.60907e-19
0.04 0.00238674 -4.16334e-18
0.0393333 0.00241851 -1.80411e-18
0.0386665 0.00244704 -1.94265e-18
0.0379997 0.00247619 9.86855e-20
0.0373331 0.00250813 2.69436e-18
0.0366667 0.00254372 2.77556e-18
0.036 0.0025856 2.35922e-18
0.0353331 0.00262336 -5.52651e-19
0.0346663 0.00266324 -7.94831e-18
0.0339997 0.00270614 -1.44406e-17
0.0333333 0.00275216 -6.93889e-18
0.0326667 0.00280531 -2.17881e-17
0.0319997 0.00285519 -2.06775e-17
0.0313331 0.00290836 -2.41616e-17
0.0306667 0.00296497 -2.48301e-17
0.03 0.00302519 -2.63678e-17
0.0293806 0.00308682 -2.81119e-17
0.0287612 0.00314814 -3.15907e-17
0.0281422 0.00321278 -3.52135e-17
0.0275235 0.00328088 -3.47427e-17
0.0270711 0.00333333 -3.64598e-17
0.0269902 0.00334307 -3.94374e-17
0.0269093 0.00335287 -2.9925e-17
0.0268285 0.00336274 -3.56781e-17
0.0267476 0.00337267 -3.17167e-17
0.0266667 0.00338267 -3.45712e-17
0.026 0.00346668 -3.43614e-17
0.0253338 0.00355447 -3.69176e-17
0.0246683 0.00364698 -4.42034e-17
0.0240034 0.00374441 -3.58104e-17
0.0233333 0.00384788 -3.55514e-17
0.0226667 0.00396808 -3.99149e-17
0.0219995 0.00408553 -3.73349e-17
0.0213334 0.00420884 -3.76096e-17
0.0206685 0.00433822 -3.51879e-17
0.02 0.00448273 -3.23015e-17
0.0193333 0.00465411 -3.85242e-17
0.0186665 0.00482465 -4.23098e-17
0.0179993 0.00499427 -4.21064e-17
0.0173354 0.00517588 -4.03267e-17
0.0166667 0.00538826 -4.16334e-17
0.016 0.00563251 -4.34375e-17
0.0153343 0.00587932 -5.01658e-17
0.0146735 0.00613917 -5.89291e-17
0.0140216 0.00642028 -5.45332e-17
0.0135011 0.00666667 -5.85662e-17
0.0134676 0.00668381 -5.43469e-17
0.0134341 0.00670103 -5.56789e-17
0.0134006 0.00671834 -6.2562e-17
0.0133671 0.00673572 -4.99013e-17
0.0133333 0.00675341 -4.73289e-17
0.0126667 0.0071053 -5.76294e-17
0.0120133 0.0074814 -5.13168e-17
0.0113758 0.00788366 -4.87818e-17
0.010756 0.00831275 -4.8714e-17
0.01 0.0088985 -4.30211e-17
0.00975405 0.0091188 -4.79579e-17
0.00951129 0.00934263 -4.73515e-17
0.00927182 0.00956995 -4.27585e-17
0.0090357 0.00980076 -4.26544e-17
0.00883779 0.01 -4.30211e-17
0.00840357 0.0104482 -4.60649e-17
0.00799122 0.0109166 -4.8386e-17
0.00760187 0.0114043 -5.12605e-17
0.00723394 0.0119083 -5.29646e-17
0.00666667 0.0127517 -4.996e-17
0.00659805 0.012868 -5.14621e-17
0.00653011 0.0129847 -4.87997e-17
0.00646283 0.0131019 -5.44628e-17
0.00639622 0.0132193 -5.3673e-17
0.00633192 0.0133333 -4.996e-17
0.00595722 0.014 -4.96825e-17
0.0056194 0.0146861 -4.80495e-17
0.00531222 0.0153864 -4.60576e-17
0.00503025 0.0160973 -4.56344e-17
0.00480605 0.0166667 -4.21178e-17
0.00454494 0.0173333 -3.99945e-17
0.00432123 0.0180135 -3.87411e-17
0.00412297 0.0187014 -3.80257e-17
0.00393447 0.0193922 -3.27843e-17
0.00377735 0.02 -3.08045e-17
0.00368855 0.0203349 -2.4366e-17
0.00360853 0.0206719 -1.63396e-17
0.00353097 0.0210095 -1.94646e-17
0.00345552 0.0213477 -2.01636e-17
0.00333333 0.0219112 -2.08167e-17
0.00327454 0.0221956 -1.67513e-17
0.00321702 0.0224803 -1.96226e-17
0.00316074 0.0227652 -1.97163e-17
0.00310566 0.0230504 -1.98081e-17
0.00305223 0.0233333 -1.249e-17
0.00292344 0.024 -1.56819e-17
0.0028065 0.0246688 -1.40202e-17
0.00269619 0.0253388 -1.50618e-17
0.00259202 0.0260098 -1.15663e-17
0.00249399 0.0266667 -5.55112e-18
0.00238394 0.0273333 -1.11022e-18
0.00229084 0.0280026 1.60239e-18
0.0022087 0.0286733 2.98433e-18
0.00213144 0.0293445 3.73628e-18
0.00204879 0.03 -6.93889e-18
0.00195282 0.0306667 -4.16334e-19
0.00187477 0.0313357 3.32678e-18
0.00181381 0.0320064 2.18356e-18
0.00175479 0.0326774 -9.27373e-19
0.0016843 0.0333333 4.16334e-18
0.00159927 0.034 6.13779e-18
0.0015334 0.0346688 7.57656e-18
0.00148538 0.0353392 9.45698e-18
0.00143842 0.0360096 1.03218e-17
0.00137814 0.0366667 1.67869e-17
0.00130186 0.0373333 1.55261e-17
0.00124637 0.0380021 1.75822e-17
0.00120747 0.0386719 1.67833e-17
0.00116857 0.0393418 1.16053e-17
0.00111735 0.04 5.07812e-18
0.00104825 0.0406667 3.3599e-19
0.00100205 0.0413353 1.24889e-18
0.000966863 0.0420046 3.25357e-18
0.000931679 0.0426739 3.9229e-18
0.000889052 0.0433333 -6.33779e-18
0.000825923 0.044 -3.45711e-18
0.000788636 0.0446686 -7.41633e-18
0.000756542 0.0453375 -8.88871e-18
0.000724448 0.0460064 -1.14724e-17
0.000690552 0.0466667 -3.23167e-18
0.000632459 0.0473333 -4.063e-18
0.00060295 0.0480019 -5.02555e-18
0.000573441 0.0486704 -1.25525e-18
0.000543932 0.049339 -6.53193e-18
0.000514755 0.05 -3.6328e-18
0.000460874 0.0506667 -7.29007e-18
0.000433488 0.0513349 -9.601e-18
0.000406101 0.0520032 -1.20097e-17
0.000378715 0.0526715 -1.41634e-17
0.000351593 0.0533333 -2.14022e-17
0.000301124 0.054 -1.53507e-17
0.000275375 0.0546681 -2.04403e-17
0.000249625 0.0553362 -8.53954e-18
0.000223876 0.0560042 -1.06929e-17
0.000198344 0.0566667 -1.83714e-17
0.000158675 0.0572184 -8.71295e-18
0.00013824 0.0577712 -1.16643e-18
0.000117805 0.0583239 1.17592e-18
9.73706e-05 0.0588767 2.56458e-18
5.5844e-05 0.06 8.23367e-18
4.46752e-05 0.0601603 4.00889e-18
3.88102e-05 0.0603208 -2.30593e-18
3.29452e-05 0.0604814 -5.49825e-18
2.70802e-05 0.0606419 -1.75167e-18
0 0.0613832 -4.63541e-18
0.05 0.00434783 5.94331e-18
0.0493333 0.00435186 2.46715e-18
0.0486667 0.00435826 -2.40073e-18
0.0480001 0.00436659 -6.38388e-18
0.0473335 0.00437642 2.79716e-19
0.0466667 0.00438906 -3.83981e-18
0.046 0.00440566 -4.56135e-18
0.0453334 0.00442341 -5.28479e-18
0.0446668 0.00444241 -6.73011e-18
0.0440002 0.00446288 -8.21385e-18
0.0433333 0.00448718 -1.69469e-17
0.0426667 0.00451659 -1.0853e-17
0.042 0.00454608 -7.534e-18
0.0413334 0.00457593 -4.99604e-18
0.0406668 0.0046073 -8.50465e-18
0.04 0.00464418 -1.12036e-17
0.0393333 0.00468739 -1.40511e-17
0.0386666 0.00472985 -1.75912e-17
0.0379999 0.00477153 -1.82132e-17
0.0373332 0.00481542 -9.74411e-18
0.0366667 0.00486665 -1.01167e-17
0.036 0.00492558 -1.49556e-17
0.0353332 0.00498311 -1.76989e-17
0.0346663 0.00503925 -1.69991e-17
0.0339997 0.00509891 -1.37393e-17
0.0333333 0.00516732 -1.38778e-17
0.0326667 0.00524497 -1.22125e-17
0.0319998 0.00532087 -8.46495e-18
0.0313327 0.00539499 -1.17751e-17
0.0306663 0.00547484 -1.67502e-17
0.03 0.00556468 -1.38778e-17
0.0293333 0.00566549 -1.98452e-17
0.0286664 0.00576452 -1.85958e-17
0.0279999 0.00586662 -2.06226e-17
0.0273346 0.00597587 -2.10541e-17
0.0266667 0.00609357 -1.94289e-17
0.0260809 0.00620819 -2.12289e-17
0.0254951 0.00632304 -1.6784e-17
0.0249107 0.00644434 -1.85601e-17
0.0243277 0.0065724 -1.58482e-17
0.0239222 0.00666667 -1.20829e-17
0.0238044 0.00669515 -7.72342e-18
0.0236867 0.00672395 -1.0303e-17
0.0235691 0.00675307 -7.33155e-18
0.0234516 0.00678251 -2.97247e-18
0.0233333 0.00681248 -1.13451e-17
0.0226667 0.00698503 -1.30202e-17
0.0220025 0.0071671 -1.47112e-17
0.0213415 0.00736008 -1.39962e-17
0.0206839 0.00756449 -1.59501e-17
0.02 0.00779313 -2.00844e-17
0.0193333 0.00804134 -2.08522e-17
0.0186708 0.00830043 -2.24601e-17
0.0180129 0.00857103 -2.01717e-17
0.0173624 0.00885884 -1.33651e-17
0.0166667 0.00919611 -1.66533e-17
0.0163659 0.00935689 -8.82763e-18
0.0160666 0.00952053 -4.55177e-18
0.0157691 0.0096874 -1.28082e-18
0.0154741 0.00985852 -1.1364e-18
0.0152381 0.01 -6.93889e-18
0.0148572 0.0102347 -4.61936e-18
0.0144817 0.0104782 5.16115e-19
0.0141122 0.0107305 -8.23598e-18
0.0137488 0.0109916 2.65483e-19
0.0133333 0.011308 9.27091e-18
0.0128363 0.0117131 8.88679e-18
0.0123517 0.0121328 -2.47041e-19
0.0118799 0.012567 -1.22245e-18
0.0114218 0.0130156 -6.48796e-18
0.0111171 0.0133333 -7.53407e-19
0.0108937 0.0135763 1.47894e-18
0.0106755 0.0138241 2.96456e-18
0.0104627 0.0140764 -3.69642e-18
0.0102551 0.0143331 -1.47739e-19
0.01 0.0146613 -7.7879e-19
0.00970354 0.0150624 -1.88148e-18
0.00941675 0.0154704 4.16478e-19
0.00913955 0.015885 7.3904e-19
0.0088715 0.0163056 5.34877e-18
0.00864941 0.0166667 8.32667e-18
0.00825286 0.0173307 3.19406e-19
0.00788706 0.0180122 6.41382e-19
0.00754988 0.0187084 1.63069e-18
0.00723232 0.0194136 4.08635e-18
0.00698666 0.02 4.96268e-18
0.00692266 0.0201595 6.19059e-18
0.0068602 0.0203197 1.07743e-18
0.00679894 0.0204803 -8.08235e-19
0.00673864 0.0206412 7.19304e-18
0.00666667 0.0208368 4.17206e-18
0.00648684 0.0213361 2.29682e-18
0.00631508 0.0218383 1.05167e-17
0.00615099 0.022343 1.02435e-17
0.00599417 0.02285 1.49977e-17
0.00584944 0.0233333 1.80411e-17
0.00564827 0.024 1.76248e-17
0.00546795 0.0246726 1.61577e-17
0.00530514 0.0253497 1.82268e-17
0.00515186 0.0260289 1.50127e-17
0.00500378 0.0266667 1.80411e-17
0.00484508 0.0273333 1.52255e-17
0.00470583 0.0280043 1.34899e-17
0.00458465 0.0286788 1.36494e-17
0.00446764 0.0293541 1.88544e-17
0.00435111 0.03 1.49584e-17
0.00422541 0.0306667 1.03105e-17
0.00411763 0.0313365 1.47973e-17
0.00401696 0.0320074 1.85146e-17
0.00391934 0.0326787 1.4274e-17
0.0038271 0.0333333 2.277e-17
0.00372835 0.0339954 1.53634e-17
0.00364126 0.0346592 1.41851e-17
0.00355687 0.0353232 1.36864e-17
0.00347507 0.0359876 7.37582e-18
0.00339407 0.0366667 2.67441e-18
0.00338192 0.0367704 7.98488e-18
0.00337 0.0368742 7.22348e-18
0.00335815 0.036978 2.21192e-18
0.00334635 0.0370818 8.30251e-18
0.00333333 0.0371969 6.05589e-18
0.00327029 0.0377575 5.12226e-18
0.00320893 0.0383183 9.53345e-18
0.00314919 0.0388793 9.40779e-18
0.00309102 0.0394405 2.37203e-18
0.00303455 0.04 0
0.00296544 0.0406667 -4.16334e-19
0.00290181 0.0413339 3.32976e-18
0.00284025 0.0420013 -3.5967e-18
0.00278067 0.0426689 6.01853e-18
[...]
POINT_DATA 29904
 FIELD attributes 1
U 3 29904 float
-4.72385e-19 	-2.74596e-22 	0
-0.0109342 	5.49666e-05 	0 -0.0109342 	5.49666e-05 	0 -0.0109342 	5.49666e-05 	0 -0.0109342 	5.49666e-05 	0 -0.0109342 	5.49666e-05 	0 -0.0109342 	5.49666e-05 	0 -0.0112377 	6.51598e-05 	0 -0.0114495 	8.53495e-05 	-1.05548e-24 -0.0114115 	0.000132603 	-4.96922e-24 -0.0111829 	0.000172909 	-8.89899e-24 -0.0108868 	0.000210643 	-1.28442e-23 -0.0111836 	0.000201175 	4.88617e-22 -0.0113511 	0.000209674 	8.16843e-22 -0.0112749 	0.000253669 	8.04757e-22 -0.011067 	0.000304713 	4.81963e-22 -0.0107906 	0.000360168 	-2.24662e-23 -0.0110718 	0.000333581 	3.29188e-22 -0.0111678 	0.000338088 	5.48449e-22 -0.0110603 	0.00037927 	6.13259e-22 -0.0108832 	0.000434987 	5.15045e-22 -0.0106341 	0.000506723 	2.39322e-22 -0.0108922 	0.000465999 	1.7566e-22 -0.0108936 	0.000476328 	1.85823e-22 -0.010763 	0.00051558 	2.37309e-22 -0.0106155 	0.000567045 	3.0545e-22 -0.0104 	0.00065331 	4.21878e-22 -0.0106289 	0.000601728 	3.18256e-22 -0.0105183 	0.000629052 	2.52307e-22 -0.0103734 	0.000667588 	1.91844e-22 -0.0102394 	0.000707281 	1.32088e-22 -0.0100664 	0.000802514 	1.69455e-22 -0.0101948 	0.000762469 	1.28964e-22 -0.0100338 	0.000800279 	9.16173e-23 -0.00988339 	0.000839492 	5.45084e-23 -0.00974401 	0.000880166 	1.76479e-23 -0.00961571 	0.000956808 	1.6132e-24 -0.00960136 	0.00095058 	-1.37541e-23 -0.00945348 	0.000987181 	-9.9228e-24 -0.00931489 	0.00102529 	-5.88254e-24 -0.00918599 	0.00106497 	-1.62504e-24 -0.00909902 	0.00109519 	1.65521e-24 -0.00908468 	0.00110087 	2.28253e-24 -0.00907053 	0.00110657 	2.91405e-24 -0.00905656 	0.00111231 	3.5498e-24 -0.00904277 	0.00111808 	4.18979e-24 -0.00901162 	0.00113559 	2.01994e-24 -0.00884964 	0.00116616 	2.29819e-24 -0.00870219 	0.00120962 	3.0697e-24 -0.00856597 	0.00125534 	3.8286e-24 -0.00844144 	0.00130343 	4.57433e-24 -0.00816965 	0.00147292 	2.23878e-23 -0.00795773 	0.00140102 	1.70151e-22 -0.00782643 	0.00144881 	2.01537e-22 -0.00770636 	0.00149939 	2.34414e-22 -0.00751316 	0.00162427 	2.03896e-22 -0.00722562 	0.00185746 	8.52537e-23 -0.00702912 	0.00179749 	2.2933e-22 -0.00683114 	0.00173689 	3.73397e-22 -0.00664053 	0.00181639 	3.83085e-22 -0.00640253 	0.0020334 	2.5976e-22 -0.00619743 	0.00227059 	1.37332e-22 -0.0060352 	0.00223753 	2.69582e-22 -0.00580794 	0.00228408 	3.00176e-22 -0.00555201 	0.00239381 	2.60648e-22 -0.00532539 	0.00252123 	2.1853e-22 -0.00516757 	0.00263998 	1.82139e-22 -0.00515678 	0.00264958 	1.79763e-22 -0.0051461 	0.00265926 	1.77377e-22 -0.00513552 	0.00266901 	1.74983e-22 -0.00512088 	0.00268102 	1.7485e-22 -0.00510434 	0.00269425 	1.75721e-22 -0.00484772 	0.00279068 	1.25964e-22 -0.00463419 	0.00292396 	7.67781e-23 -0.00444653 	0.0030784 	2.60418e-23 -0.00422722 	0.0032752 	2.19384e-23 -0.00397931 	0.00356424 	2.59496e-23 -0.00391585 	0.00361056 	1.49653e-23 -0.00385655 	0.00366085 	3.97356e-24 -0.00379788 	0.00371249 	2.23718e-23 -0.00374145 	0.00376663 	5.74099e-23 -0.00369709 	0.0038161 	8.72115e-23 -0.00349009 	0.00396462 	8.61627e-23 -0.0033043 	0.00413895 	8.19557e-23 -0.00314445 	0.00430761 	7.45967e-23 -0.00300807 	0.004472 	6.44226e-23 -0.00281506 	0.00477255 	4.37694e-23 -0.00279665 	0.00480456 	7.10845e-23 -0.00277882 	0.00483735 	9.80164e-23 -0.00276157 	0.0048709 	1.24568e-22 -0.00276016 	0.0048934 	6.85752e-23 -0.00276162 	0.00491348 	1.57806e-25 -0.0024874 	0.00505167 	-3.99881e-22 -0.00232891 	0.00530983 	-6.5478e-22 -0.00222645 	0.00561293 	-8.4429e-22 -0.00228722 	0.00580854 	-6.63547e-22 -0.00233717 	0.00596723 	-5.1858e-22 -0.00205082 	0.00623499 	-3.529e-22 -0.00186415 	0.00646863 	-2.09752e-22 -0.00180267 	0.00660552 	-1.06893e-22 -0.00174696 	0.00675856 	-1.40785e-24 -0.00185876 	0.00700875 	-2.76073e-23 -0.00171557 	0.00722596 	-1.26626e-24 -0.00168015 	0.00731434 	0 -0.00165156 	0.00740076 	0 -0.00162441 	0.00749191 	0 -0.00158155 	0.00765124 	0 -0.00156214 	0.00773151 	0 -0.00154359 	0.00781475 	0 -0.00152588 	0.00790088 	0 -0.00150899 	0.00798981 	0 -0.00153792 	0.00796116 	0 -0.00141217 	0.00807709 	0 -0.00136678 	0.00830061 	0 -0.00132647 	0.00854403 	0 -0.00130683 	0.00875699 	0 -0.00141759 	0.00858734 	0 -0.00121091 	0.00870534 	0 -0.00109474 	0.00893815 	0 -0.00106637 	0.00926454 	0 -0.00116028 	0.00920189 	0 -0.00129012 	0.00896209 	0 -0.00106835 	0.00915773 	0 -0.000857304 	0.00943392 	0 -0.000849632 	0.00965742 	0 -0.00101076 	0.00940596 	0 -0.00115949 	0.00909115 	0 -0.000923135 	0.00937382 	0 -0.000699393 	0.00976231 	0 -0.000677369 	0.00966972 	0 -0.000859007 	0.00936359 	0 -0.00102641 	0.0089708 	0 -0.000775878 	0.00934946 	0 -0.000566097 	0.00974924 	0 -0.000548429 	0.00944498 	0 -0.000706676 	0.00908154 	0 -0.000892608 	0.00861054 	0 -0.000628293 	0.00909378 	0 -0.000486193 	0.0092488 	0 -0.000469121 	0.00892405 	0 -0.000551591 	0.0085325 	0 -0.000756382 	0.00798775 	0 -0.000478695 	0.00858367 	0 -0.000405994 	0.00846146 	0 -0.000389472 	0.00811712 	0 -0.000397734 	0.00774789 	0 -0.000622286 	0.00714124 	0 -0.000343841 	0.00778994 	0 -0.000327799 	0.00742648 	0 -0.000311756 	0.00706302 	0 -0.000295713 	0.00669956 	0 -0.000489855 	0.006061 	0 -0.000264268 	0.00644862 	0 -0.000248564 	0.00606542 	0 -0.000232861 	0.00568223 	0 -0.000217157 	0.00529903 	0 -0.000353604 	0.00467095 	2.3591e-37 -0.00018291 	0.00474566 	0 -0.000167269 	0.00433985 	0 -0.000151628 	0.00393404 	0 -0.000135988 	0.00352823 	0 -0.0002122 	0.00295133 	2.38318e-40 -0.000103447 	0.00279827 	0 -9.01243e-05 	0.00243789 	0 -7.68021e-05 	0.00207752 	0 -6.34798e-05 	0.00171715 	0 -6.45076e-05 	0.000925645 	-3.74028e-38 -3.20732e-05 	0.000877966 	0 -2.78626e-05 	0.000762706 	0 -2.3652e-05 	0.000647446 	0 -1.94414e-05 	0.000532187 	0 0 	0 	0
-0.0210935 	0.00012766 	0 -0.0212862 	0.000204235 	0 -0.0213799 	0.000267241 	-1.79708e-24 -0.0213581 	0.000314818 	-5.63313e-24 -0.0211856 	0.00040175 	-4.67653e-23 -0.0208991 	0.000520538 	-1.17934e-22 -0.0210335 	0.000559835 	-5.78237e-22 -0.0211015 	0.000601437 	-8.72237e-22 -0.0210566 	0.000646751 	-8.89707e-22 -0.0208146 	0.000758514 	-6.21765e-22 -0.0204892 	0.000903679 	-2.15289e-22 -0.0205661 	0.000909868 	-4.68285e-22 -0.0206164 	0.000923209 	-6.63093e-22 -0.0205519 	0.000967151 	-6.0879e-22 -0.0202224 	0.00111846 	-2.68891e-22 -0.0198732 	0.00128824 	1.13031e-22 -0.019897 	0.00126693 	6.40921e-22 -0.0199179 	0.00124528 	1.16898e-21 -0.0198028 	0.00130371 	1.20588e-21 -0.0194195 	0.00149238 	7.53169e-22 -0.0190623 	0.001685 	2.99282e-22 -0.0190394 	0.00164295 	5.06804e-22 -0.0190116 	0.00160015 	7.14596e-22 -0.0187964 	0.00168245 	6.74597e-22 -0.0184183 	0.00189084 	3.84478e-22 -0.0180683 	0.00210458 	9.39283e-23 -0.018007 	0.00204943 	5.13274e-23 -0.0179399 	0.00199317 	8.8214e-24 -0.0175796 	0.00210663 	1.37061e-23 -0.0172239 	0.00232205 	1.71944e-23 -0.0168955 	0.00255509 	2.05093e-23 -0.0168048 	0.00249506 	5.89191e-23 -0.0165554 	0.00253617 	7.27157e-23 -0.016195 	0.00265945 	6.72803e-23 -0.0158546 	0.00279389 	6.02078e-23 -0.0155602 	0.00304463 	2.29869e-23 -0.0154242 	0.00302438 	2.29915e-23 -0.0151123 	0.00313634 	4.2022e-23 -0.0148152 	0.0032543 	6.12843e-23 -0.0145337 	0.00337858 	8.07881e-23 -0.0143488 	0.00346988 	9.45673e-23 -0.0142978 	0.00349856 	9.62835e-23 -0.0142474 	0.00352755 	9.79847e-23 -0.0141979 	0.00355685 	9.96708e-23 -0.0141491 	0.00358647 	1.01342e-22 -0.0140621 	0.00363954 	1.04208e-22 -0.013713 	0.00375948 	9.99399e-23 -0.0134026 	0.00391257 	1.0434e-22 -0.0131139 	0.00407633 	1.07555e-22 -0.0128009 	0.00427969 	1.16512e-22 -0.0123509 	0.00459844 	1.46794e-22 -0.0120097 	0.00469658 	8.59393e-23 -0.0116891 	0.0048078 	2.4637e-23 -0.0113104 	0.00500373 	5.32612e-24 -0.0109505 	0.00530879 	2.86838e-23 -0.0105996 	0.00566518 	5.17634e-23 -0.01048 	0.00573043 	2.20408e-23 -0.010351 	0.00580662 	0 -0.010187 	0.00590809 	0 -0.0100302 	0.0060148 	0 -0.00990951 	0.00610518 	0 -0.0096886 	0.00628335 	0 -0.00948175 	0.00647345 	0 -0.00928937 	0.00667567 	0 -0.0090516 	0.00689267 	0 -0.00878791 	0.0071624 	0 -0.00851471 	0.00737357 	0 -0.00826768 	0.00760908 	0 -0.00801001 	0.00784513 	0 -0.00776807 	0.0080984 	0 -0.00762115 	0.00828927 	0 -0.00746692 	0.00848128 	0 -0.0073217 	0.00868271 	0 -0.00717525 	0.00886815 	4.30047e-24 -0.00703073 	0.00904574 	1.14213e-23 -0.00685927 	0.00927995 	2.03685e-23 -0.0066789 	0.0095028 	2.19732e-23 -0.0065139 	0.00974323 	2.38331e-23 -0.00636698 	0.00999029 	1.91039e-23 -0.00625756 	0.0101729 	-3.83061e-23 -0.00617332 	0.0103381 	-8.67704e-23 -0.00579536 	0.0107968 	-1.42354e-22 -0.00546607 	0.0112848 	-1.89271e-22 -0.00523747 	0.0116319 	-1.90626e-22 -0.00503328 	0.012014 	-1.90682e-22 -0.00497683 	0.0124061 	-2.55272e-22 -0.00490233 	0.0125691 	-2.66221e-22 -0.004843 	0.0126976 	-2.51914e-22 -0.00479525 	0.0127999 	-2.18447e-22 -0.00474885 	0.0129043 	-1.85289e-22 -0.00469418 	0.0130334 	-1.45459e-22 -0.00456221 	0.0133377 	-9.95065e-23 -0.00444144 	0.0136611 	-5.37523e-23 -0.00433128 	0.0140024 	-8.19672e-24 -0.00427884 	0.0142907 	2.54034e-23 -0.00434812 	0.0144097 	2.93542e-23 -0.00397803 	0.0148386 	1.92296e-23 -0.00368936 	0.0153424 	7.705e-23 -0.00359292 	0.0159219 	3.15715e-22 -0.00374724 	0.0161383 	5.69323e-22 -0.00388716 	0.0163295 	8.05408e-22 -0.00350932 	0.0169095 	4.07458e-22 -0.00315345 	0.0175527 	1.67936e-23 -0.00307997 	0.0177743 	0 -0.00325176 	0.0180246 	3.43181e-25 -0.00344146 	0.0182521 	7.15201e-25 -0.00305733 	0.0189991 	1.58398e-25 -0.00290906 	0.0193872 	0 -0.00285454 	0.0196323 	0 -0.0028029 	0.0198913 	0 -0.00300581 	0.0201524 	-2.07074e-22 -0.00273249 	0.0208257 	0 -0.00268162 	0.0211011 	0 -0.00263349 	0.0213913 	0 -0.00258802 	0.0216956 	0 -0.00257715 	0.0220142 	9.37961e-23 -0.00254126 	0.0221287 	0 -0.00253386 	0.0221777 	0 -0.00252653 	0.0222271 	0 -0.00251926 	0.0222769 	0 -0.00251128 	0.0223325 	0 -0.00247291 	0.0226004 	0 -0.00243639 	0.0228792 	0 -0.00240164 	0.0231687 	0 -0.00236862 	0.0234684 	0 -0.00242418 	0.0233848 	0 -0.00226908 	0.0237947 	0 -0.00222963 	0.024173 	0 -0.0021926 	0.0245669 	0 -0.00215788 	0.0249758 	0 -0.00231688 	0.0244673 	0 -0.00203919 	0.0250633 	0 -0.00200311 	0.0255045 	0 -0.00197187 	0.0259596 	0 -0.00199878 	0.0261386 	0 -0.00220952 	0.025356 	0 -0.00191885 	0.0260723 	0 -0.00177693 	0.0266955 	0 -0.00175245 	0.0272169 	0 -0.00187728 	0.0269381 	0 -0.00210405 	0.0260335 	0 -0.00180063 	0.0268775 	0 -0.00155457 	0.027751 	7.58791e-38 -0.00153892 	0.0283458 	4.98852e-37 -0.00176349 	0.0275542 	9.22639e-37 -0.00200769 	0.0265207 	1.33945e-36 -0.0016914 	0.0275 	8.58267e-37 -0.00138433 	0.0286061 	3.82976e-37 -0.00138749 	0.0290333 	6.49888e-40 -0.00166216 	0.0279708 	1.41395e-39 -0.00192691 	0.0267998 	2.16408e-39 -0.00159701 	0.0279235 	1.30545e-39 -0.0012773 	0.0291943 	4.57812e-40 -0.00127723 	0.0293536 	-2.37199e-37 -0.00157968 	0.0281644 	-6.64984e-37 -0.00187073 	0.0268438 	-1.08468e-36 -0.00152558 	0.0281248 	-6.07051e-37 -0.00119201 	0.0295779 	-1.35866e-37 -0.00118421 	0.0294509 	0 -0.00152516 	0.0281243 	0 -0.00185223 	0.026634 	0 -0.0014892 	0.0280941 	0 -0.00113993 	0.0297587 	0 -0.00110991 	0.0292959 	0 -0.00150683 	0.0278133 	0 -0.0018854 	0.0261187 	0 -0.00150146 	0.0277973 	0 -0.00120059 	0.0291675 	0 -0.00117296 	0.0284962 	0 -0.00151827 	0.0270277 	0 -0.00197173 	0.025068 	0 -0.00156574 	0.0270408 	0 -0.00133535 	0.0277964 	0 -0.00129297 	0.0269141 	0 -0.0015299 	0.0254709 	0 -0.00209112 	0.0231431 	0 -0.00167007 	0.0255591 	0 -0.00151171 	0.0252542 	0 -0.00143642 	0.0239964 	0 -0.00143869 	0.0225894 	0 -0.00215127 	0.0197399 	0 -0.0017606 	0.0224377 	0 -0.00160875 	0.0205025 	0 -0.0014569 	0.0185673 	0 -0.00130505 	0.0166321 	0 -0.00182078 	0.0133818 	0 -0.00150711 	0.0143229 	0 -0.00121466 	0.0115436 	0 -0.000922216 	0.00876434 	0 -0.000629769 	0.00598505 	0 -0.00020515 	0.00119639 	0 -0.00019117 	0.0013794 	0 -0.000152351 	0.0010993 	0 -0.000113531 	0.000819189 	0 -7.4711e-05 	0.000539083 	0 0 	0 	0
-0.0303673 	0.000220612 	0 -0.030343 	0.000352114 	-5.22037e-23 -0.0302691 	0.000499143 	-1.19059e-22 -0.0302078 	0.00064664 	-1.86233e-22 -0.0301591 	0.000794605 	-2.53725e-22 -0.0300913 	0.000939169 	-3.22103e-22 -0.0300011 	0.00104548 	-4.07588e-22 -0.0298794 	0.00116528 	-4.3653e-22 -0.0297666 	0.00128586 	-4.64215e-22 -0.0296629 	0.00140723 	-4.90629e-22 -0.0296473 	0.0014274 	-4.94779e-22 -0.0296182 	0.00146793 	-5.05346e-22 -0.0295903 	0.00150854 	-5.15841e-22 -0.0295633 	0.00154925 	-5.26263e-22 -0.0295375 	0.00159005 	-5.36613e-22 -0.029495 	0.00163823 	-5.51672e-22 -0.029303 	0.00177288 	-4.73321e-22 -0.0291144 	0.00190826 	-3.97509e-22 -0.0289384 	0.00204538 	-3.20927e-22 -0.0287754 	0.00218426 	-2.43562e-22 -0.0285251 	0.00236962 	-1.76304e-22 -0.0283196 	0.00249654 	-4.28579e-22 -0.0280907 	0.00263101 	-4.27507e-22 -0.0278748 	0.00276789 	-4.29238e-22 -0.0276722 	0.00290724 	-4.33834e-22 -0.027267 	0.00315201 	1.29083e-22 -0.0270453 	0.00325433 	-3.21421e-22 -0.0267903 	0.00339247 	-3.60622e-22 -0.026549 	0.00353383 	-4.01858e-22 -0.0262356 	0.0037222 	-3.0434e-22 -0.0257524 	0.00401126 	9.6653e-23 -0.025489 	0.00410494 	4.29864e-23 -0.0252339 	0.00421264 	1.73217e-24 -0.0249823 	0.004364 	5.99956e-24 -0.0244869 	0.00465953 	1.089e-23 -0.0240112 	0.00497022 	1.57365e-23 -0.0237255 	0.00506752 	8.55236e-24 -0.0234515 	0.00516938 	1.33858e-24 -0.0229884 	0.00539042 	0 -0.0225212 	0.00570918 	4.17199e-24 -0.0220749 	0.00604728 	8.30596e-24 -0.0217878 	0.00616068 	1.31981e-24 -0.0213305 	0.00638933 	0 -0.0208545 	0.00665624 	0 -0.0204063 	0.00693818 	0 -0.0199722 	0.00724647 	0 -0.0199719 	0.00724676 	0 -0.0199715 	0.00724705 	0 -0.0199712 	0.00724735 	0 -0.0199708 	0.00724767 	0 -0.0199703 	0.00724805 	0 -0.0194946 	0.00753235 	0 -0.0190475 	0.0078356 	0 -0.0186305 	0.00815849 	0 -0.0181758 	0.00853007 	0 -0.0175943 	0.00901199 	0 -0.0171391 	0.00930566 	0 -0.0167073 	0.00962786 	0 -0.016167 	0.0100188 	0 -0.0156716 	0.0104433 	0 -0.0151521 	0.0109755 	0 -0.0151516 	0.010976 	0 -0.0151512 	0.0109764 	0 -0.0151506 	0.0109769 	0 -0.01515 	0.0109774 	0 -0.0151494 	0.0109779 	0 -0.014596 	0.011435 	0 -0.0140896 	0.0119374 	0 -0.0136202 	0.0124796 	3.59064e-24 -0.0131091 	0.0130219 	3.50831e-23 -0.0124941 	0.0138111 	7.73607e-23 -0.0124371 	0.0138891 	7.76086e-23 -0.0123812 	0.0139681 	7.78816e-23 -0.0123238 	0.014042 	7.92276e-23 -0.0122633 	0.0141065 	8.23495e-23 -0.0122064 	0.0141691 	8.53551e-23 -0.0116431 	0.0147841 	1.94874e-22 -0.0111362 	0.015464 	3.0904e-22 -0.0106763 	0.0160856 	1.02333e-22 -0.0103159 	0.0167231 	-3.52538e-22 -0.0101001 	0.0172095 	-6.78701e-22 -0.0100012 	0.0174135 	-8.50826e-22 -0.00990547 	0.0176125 	-9.77311e-22 -0.00981378 	0.0177671 	-8.39377e-22 -0.00972453 	0.0179245 	-7.02766e-22 -0.00962385 	0.0181102 	-5.45897e-22 -0.00936867 	0.018558 	-4.93965e-22 -0.00913417 	0.0190315 	-4.391e-22 -0.00891952 	0.0195295 	-3.81454e-22 -0.00877859 	0.0198905 	-2.12859e-22 -0.00868254 	0.0201729 	-1.90616e-23 -0.00825547 	0.0208886 	3.22507e-22 -0.00786193 	0.0216571 	6.67691e-22 -0.00759705 	0.0221935 	1.00077e-21 -0.00752832 	0.022704 	1.62823e-21 -0.00747823 	0.0231825 	2.20182e-21 -0.00717049 	0.0239419 	3.0169e-21 -0.00697361 	0.0244544 	2.62899e-21 -0.00681482 	0.0249107 	1.91374e-21 -0.00666623 	0.0253863 	1.21473e-21 -0.0064459 	0.0261701 	1.30229e-22 -0.0064341 	0.026218 	9.83333e-23 -0.00642237 	0.0262659 	6.64541e-23 -0.00641073 	0.0263141 	3.45914e-23 -0.00639916 	0.0263623 	2.74491e-24 -0.00641004 	0.0263697 	2.29672e-24 -0.00620102 	0.0269818 	-1.82669e-22 -0.00604062 	0.027627 	-3.99216e-22 -0.00589352 	0.0283007 	-6.19416e-22 -0.00576311 	0.0289924 	-8.43002e-22 -0.00594669 	0.0290874 	-1.06346e-21 -0.00550374 	0.0298553 	-7.26717e-22 -0.00522976 	0.0306565 	3.59972e-23 -0.00511876 	0.0314717 	1.22442e-21 -0.005285 	0.0317258 	2.15795e-21 -0.00550763 	0.0318188 	3.00106e-21 -0.00505415 	0.0327505 	1.79335e-21 -0.00461885 	0.0337503 	6.01407e-22 -0.00454999 	0.0343392 	9.52173e-25 -0.00482473 	0.0344598 	2.76642e-24 -0.0050856 	0.0345477 	4.52805e-24 -0.00462191 	0.0356543 	2.14333e-24 -0.00421058 	0.0367487 	0 -0.00415586 	0.0370384 	0 -0.00438088 	0.0371902 	-3.22917e-21 -0.00467876 	0.0372689 	-7.34529e-21 -0.00420551 	0.038561 	-2.03504e-21 -0.00399443 	0.0392685 	0 -0.00394391 	0.0395961 	0 -0.00394967 	0.0398966 	-1.04583e-24 -0.00428394 	0.0399615 	-8.37214e-24 -0.003835 	0.0413559 	0 -0.00378774 	0.0417108 	0 -0.00374215 	0.0420782 	0 -0.00369819 	0.0424579 	0 -0.0039053 	0.0426221 	2.04418e-21 -0.00363397 	0.043651 	2.39983e-37 -0.00359352 	0.0440485 	7.24892e-37 -0.0035546 	0.0444583 	1.20912e-36 -0.00351718 	0.0448801 	1.69268e-36 -0.00354768 	0.04524 	2.23659e-36 -0.00347654 	0.0455862 	2.42823e-36 -0.00346538 	0.0457426 	2.18292e-36 -0.0034544 	0.0459005 	1.93816e-36 -0.00344359 	0.0460599 	1.69395e-36 -0.00343131 	0.0462457 	1.4126e-36 -0.00341247 	0.0465293 	1.1099e-36 -0.00339416 	0.0468174 	8.07428e-37 -0.00337637 	0.0471099 	5.05175e-37 -0.00335908 	0.0474068 	2.03138e-37 -0.00340305 	0.0473304 	3.82191e-39 -0.00330776 	0.04796 	-3.09308e-37 -0.00329229 	0.0484551 	-7.2597e-37 -0.00327788 	0.0489597 	-1.14312e-36 -0.00326452 	0.0494735 	-1.56074e-36 -0.00341113 	0.0489476 	-1.97784e-36 -0.00320081 	0.0499296 	-1.50021e-36 -0.00321066 	0.0504947 	-1.02489e-36 -0.0032211 	0.0510652 	-5.49792e-37 -0.00323213 	0.0516409 	-7.49028e-38 -0.00350415 	0.0503878 	0 -0.00315713 	0.0518123 	0 -0.00320856 	0.0524729 	0 -0.00325971 	0.0531312 	0 -0.00335563 	0.0534441 	0 -0.00372679 	0.0516278 	0 -0.00334285 	0.0533064 	0 -0.00331101 	0.054382 	0 -0.00342904 	0.0551662 	0 -0.00369207 	0.0546848 	0 -0.00413322 	0.0525484 	0 -0.00372722 	0.0545213 	0 -0.00354259 	0.0562313 	0 -0.00377067 	0.0572073 	0 -0.00424732 	0.0555671 	0 -0.00478486 	0.0529556 	0 -0.00436382 	0.0553717 	0 -0.00396013 	0.0579866 	0 -0.00435577 	0.0588416 	0 -0.00505216 	0.0557696 	0 -0.00571006 	0.0523953 	0 -0.00530391 	0.0555545 	0 -0.0049257 	0.0589794 	0 -0.00514937 	0.0586269 	0 -0.00599646 	0.0544205 	0 -0.00676924 	0.0497504 	0 -0.00646074 	0.0542635 	0 -0.00619999 	0.058922 	0 -0.00586755 	0.0557627 	0 -0.00660006 	0.0499383 	0 -0.00738006 	0.0430389 	0 -0.00734989 	0.050172 	0 -0.00691398 	0.0498883 	0 -0.00617832 	0.0445801 	0 -0.00550493 	0.0389997 	0 -0.00596031 	0.0284919 	0 -0.00615632 	0.0365186 	0 -0.00490682 	0.0291067 	0 -0.00365732 	0.0216948 	0 -0.00240782 	0.0142829 	0 -0.000121462 	0.000536286 	0 -0.00013246 	0.000792672 	0 -0.000107751 	0.000644808 	0 -8.30422e-05 	0.000496943 	0 -5.83332e-05 	0.000349079 	0 0 	0 	0